ITEM: TIMESTEP
0
ITEM: NUMBER OF ATOMS
384
ITEM: BOX BOUNDS pp pp pp
-3.1180958401302572e-01 1.5311809584013066e+01
-3.1180958401302572e-01 1.5311809584013066e+01
-3.1180958401302572e-01 1.5311809584013066e+01
ITEM: ATOMS id type x y z
1 1 4.57679 5.50123 13.6944
2 1 14.8875 3.66367 14.1079
3 1 8.20115 10.8513 3.91518
4 1 1.55859 4.11103 4.68534
5 1 14.0046 11.0534 10.4291
6 1 10.1562 -0.0244194 -0.0179537
7 1 13.1461 9.78511 5.92123
8 1 3.48566 13.6848 7.87681
9 1 3.32305 6.30373 3.20589
10 1 5.30735 8.37688 2.36991
11 1 13.7801 6.32188 1.70807
12 1 0.692367 10.1945 14.1186
13 1 15.0627 5.43363 4.6639
14 1 9.98456 5.97612 7.92121
15 1 12.4056 7.19481 3.96576
16 1 9.83562 2.64919 6.79506
17 1 4.60459 4.17249 11.4106
18 1 7.55062 10.3381 11.1669
19 1 8.27543 1.89543 14.4455
20 1 5.83253 14.0038 0.549654
21 1 -0.277952 13.5963 10.2649
22 1 12.6457 2.09652 6.28487
23 1 10.7129 7.40871 14.2399
24 1 2.2119 7.88472 6.40809
25 1 10.4542 9.69036 5.97773
26 1 -0.282536 8.22967 4.81222
27 1 1.6652 11.2607 4.20606
28 1 6.17365 -0.094545 10.725
29 1 12.1932 8.4542 0.381712
30 1 2.29814 6.67565 12.652
31 1 3.74006 5.65533 5.77839
32 1 7.64075 12.3667 7.75101
33 1 2.57949 3.81144 2.08856
34 1 3.31976 13.3432 0.0677147
35 1 -0.0967938 5.37115 7.46928
36 1 11.1426 14.5448 7.59235
37 1 1.26174 14.8074 2.57217
38 1 6.41618 0.335516 13.3898
39 1 0.207637 9.92258 2.18818
40 1 12.6731 13.1901 12.8323
41 1 1.29363 11.9761 7.9846
42 1 13.2286 14.8362 0.439531
43 1 -0.123887 15.1905 5.01064
44 1 8.80795 12.7708 12.0788
45 1 12.4172 6.75949 6.79319
46 1 9.49869 10.6014 8.40823
47 1 10.544 10.9934 13.3575
48 1 8.99001 12.8372 5.44675
49 1 4.04829 1.51716 14.6149
50 1 6.69928 13.1999 13.7041
51 1 4.43379 6.10378 9.26553
52 1 11.4216 -0.0969869 13.0672
53 1 8.10878 14.4288 3.40524
54 1 4.3962 2.37166 3.28729
55 1 12.1316 11.4523 8.45349
56 1 8.7458 10.8517 -0.213292
57 1 1.53862 1.7361 8.48855
58 1 8.69585 5.89847 11.616
59 1 1.22107 9.19196 8.49846
60 1 10.635 10.5731 3.14594
61 1 11.4957 4.51089 15.2148
62 1 10.9209 6.7156 10.446
63 1 4.94638 10.4223 10.3546
64 1 7.94749 8.55464 1.09697
65 1 14.5919 7.80968 8.4877
66 1 5.26248 14.7619 3.62401
67 1 5.62202 2.26942 6.97039
68 1 1.29568 -0.0251437 10.348
69 1 11.6689 12.7598 1.5126
70 1 8.10674 4.34492 9.29769
71 1 15.2574 12.5827 5.71394
72 1 5.13758 11.4238 7.95676
73 1 0.807368 7.59384 14.5622
74 1 1.07308 4.35508 11.6836
75 1 -0.103901 0.899318 12.6958
76 1 12.4336 12.7126 5.99741
77 1 6.5124 0.898083 1.44852
78 1 5.22926 7.74021 7.34722
79 1 4.69818 3.85809 0.25821
80 1 14.6318 1.53081 0.260033
81 1 8.7843 1.26425 2.88569
82 1 10.1715 2.86217 10.2074
83 1 1.97586 4.56417 8.94346
84 1 12.6683 15.2799 4.82665
85 1 10.1623 4.44247 4.67024
86 1 8.26116 6.29332 15.2182
87 1 2.75694 2.33071 12.3211
88 1 10.1168 15.0402 10.6766
89 1 0.0214213 11.8389 0.424274
90 1 9.92368 3.73613 12.9889
91 1 7.93039 3.8304 3.09944
92 1 3.45334 12.7245 2.72154
93 1 13.7442 3.34545 8.32257
94 1 1.06378 7.50528 1.70711
95 1 13.5608 9.51663 12.896
96 1 6.16563 2.34739 9.6158
97 1 6.00658 4.12469 4.96415
98 1 13.0409 2.11594 12.6389
99 1 9.44842 7.22402 5.61094
100 1 3.08802 8.31472 10.412
101 1 4.27645 12.564 12.0172
102 1 0.247817 12.7339 12.6695
103 1 6.92237 8.32243 4.80264
104 1 10.2096 9.4039 11.0142
105 1 8.10819 14.6608 9.11245
106 1 0.724807 14.5893 14.8093
107 1 7.38606 3.87893 0.612739
108 1 13.59 6.17467 11.3541
109 1 6.57455 9.82429 14.0409
110 1 6.72525 7.05567 13.1783
111 1 3.66994 10.3273 5.96103
112 1 1.66543 1.60839 5.77048
113 1 9.05834 13.0173 1.11863
114 1 4.11235 0.213829 6.02437
115 1 10.3679 8.11545 2.36753
116 1 3.8208 14.5044 10.4834
117 1 6.27696 11.8524 2.07137
118 1 3.1417 11.1769 14.1451
119 1 12.971 3.21476 1.56998
120 1 12.4061 13.5738 10.1924
121 1 14.0948 6.56232 13.8874
122 1 11.4172 0.689063 2.37021
123 1 1.65778 1.52802 1.12949
124 1 7.74882 0.714644 6.86752
125 1 13.0368 10.8806 0.0461404
126 1 14.1536 3.59273 10.8941
127 1 12.9937 3.74289 4.44237
128 1 4.93288 10.2326 0.481908
129 2 4.52916 4.87676 12.9369
130 2 4.69703 5.06241 14.547
131 2 14.6886 4.58995 14.3163
132 2 0.0945933 3.63697 13.6264
133 2 7.74221 10.0755 4.24889
134 2 8.99342 10.7228 3.34745
135 2 0.788771 4.72927 4.53377
136 2 1.81069 3.95163 3.77685
137 2 14.4008 11.9252 10.4575
138 2 13.9069 10.7269 11.3647
139 2 10.6725 0.201823 0.765773
140 2 9.47367 0.652849 -0.0632908
141 2 13.5922 9.97565 6.76473
142 2 13.2152 10.5455 5.32572
143 2 3.67781 14.0964 8.7488
144 2 3.53939 14.3835 7.27865
145 2 3.09567 5.45978 2.78243
146 2 3.60518 6.19337 4.09913
147 2 5.08995 9.05489 1.76222
148 2 4.54185 7.79795 2.5309
149 2 13.4381 6.67871 2.59019
150 2 14.7355 6.25337 1.79471
151 2 0.77524 9.18308 14.2443
152 2 0.388115 10.6288 14.9234
153 2 14.1894 4.91997 4.56536
154 2 14.9228 6.4107 4.60147
155 2 10.8762 5.93786 7.61697
156 2 9.58879 6.53361 7.20672
157 2 12.1014 7.06547 4.8105
158 2 11.5829 7.27566 3.48345
159 2 9.70669 3.06202 7.62541
160 2 9.96186 3.35305 6.0781
161 2 3.89127 3.51534 11.556
162 2 5.31618 3.63484 11.0911
163 2 8.36256 9.80951 10.99
164 2 7.91946 11.2623 11.3115
165 2 7.80256 2.56448 14.9346
166 2 7.58248 1.21916 14.1315
167 2 6.10462 13.5421 -0.242407
168 2 4.85977 13.825 0.528199
169 2 14.4101 13.8153 10.1623
170 2 -0.0704958 13.4422 11.1966
171 2 11.7088 2.1063 6.54679
172 2 12.6961 1.18401 5.89058
173 2 10.9921 7.5299 13.3514
174 2 11.2636 8.01166 14.7268
175 2 1.57728 7.89927 5.7134
176 2 1.87051 8.36741 7.16573
177 2 11.4302 9.71213 6.20698
178 2 10.3486 10.1292 5.1128
179 2 14.4149 8.445 5.04536
180 2 0.00164071 8.8165 4.03796
181 2 1.02838 11.8189 4.67407
182 2 2.36173 10.8675 4.79517
183 2 6.32838 0.734699 10.265
184 2 5.21972 -0.301306 10.6492
185 2 12.568 9.37229 0.310345
186 2 12.8634 7.95827 0.824663
187 2 2.56428 7.41349 12.0109
188 2 3.14156 6.4193 13.0935
189 2 3.16723 6.41343 5.9805
190 2 3.10221 4.98312 5.63197
191 2 7.73547 13.1577 8.33842
192 2 8.06104 12.6116 6.87934
193 2 1.75422 3.38105 1.7562
194 2 3.25148 3.1727 2.47226
195 2 3.15037 12.6412 14.9757
196 2 3.16776 12.9566 0.983888
197 2 0.0720948 5.37286 6.52711
198 2 -0.245356 6.34024 7.61737
199 2 11.6512 14.8569 8.35832
200 2 11.802 13.9131 7.23812
201 2 2.07792 14.3411 2.56175
202 2 1.50629 0.044002 2.08403
203 2 6.3968 14.9261 13.4491
204 2 6.20534 0.425411 12.4267
205 2 0.660795 9.1318 1.85703
206 2 0.694078 10.391 2.87312
207 2 12.3708 14.0972 13.0916
208 2 12.1841 12.5232 13.366
209 2 2.09163 12.5603 7.87369
210 2 0.901668 12.2269 8.80367
211 2 13.6981 0.109016 0.335681
212 2 13.4443 14.3386 15.279
213 2 14.5376 15.2076 4.93591
214 2 0.228484 14.9795 4.13145
215 2 9.24837 13.4527 11.622
216 2 9.52013 12.2417 12.5392
217 2 12.875 7.30125 7.44426
218 2 13.1287 6.09272 6.70831
219 2 8.70364 11.2231 8.31889
220 2 9.67729 10.2938 7.51515
221 2 10.4955 10.2933 12.7118
222 2 10.0325 10.7711 14.1408
223 2 9.87115 13.0955 5.5737
224 2 8.95145 12.0108 4.93614
225 2 4.74251 0.928236 14.2575
226 2 3.48888 1.81195 13.8977
227 2 7.56401 13.1017 13.1985
228 2 6.02622 12.6782 13.2435
229 2 3.65548 5.64787 8.88705
230 2 4.53028 5.65688 10.1121
231 2 10.7483 -0.0654962 13.7661
232 2 11.7812 0.808853 13.0779
233 2 8.36482 -0.291862 3.46612
234 2 8.34757 14.0066 4.25098
235 2 5.1094 1.81781 2.95108
236 2 4.6411 2.96006 4.03817
237 2 12.5339 11.0417 9.22128
238 2 11.1841 11.2095 8.49369
239 2 8.60742 10.312 0.576946
240 2 8.69537 11.7883 0.0583599
241 2 1.42282 1.68337 7.50469
242 2 1.60998 2.65673 8.73322
243 2 8.87953 5.11923 12.1645
244 2 8.03029 6.40716 12.1505
245 2 1.95332 8.95172 9.16853
246 2 1.28006 10.1574 8.3047
247 2 11.2632 11.2403 2.79611
248 2 10.7957 9.70539 2.72449
249 2 11.5653 5.40273 -0.288322
250 2 11.1896 4.32648 14.2564
251 2 10.4204 6.65681 9.62663
252 2 10.2607 6.46258 11.0571
253 2 5.87632 10.1769 10.5904
254 2 4.94364 10.8143 9.46912
255 2 7.91802 7.6928 0.604333
256 2 7.17835 8.74025 1.63464
257 2 14.2008 7.92642 9.35992
258 2 -0.267797 8.44072 8.55252
259 2 6.16366 14.3915 3.8125
260 2 4.75946 14.0077 3.26281
261 2 6.35085 1.60272 6.90857
262 2 4.84301 1.75402 6.76165
263 2 1.34137 0.662419 9.62968
264 2 0.817817 14.7755 10.0578
265 2 10.8342 13.0339 1.10914
266 2 12.2496 13.5788 1.43103
267 2 7.99168 4.93257 10.0429
268 2 8.59208 4.87508 8.55834
269 2 -0.0863874 13.5026 5.64494
270 2 0.00602987 12.1735 6.56287
271 2 6.0476 11.6847 7.84187
272 2 4.65027 12.2574 7.8746
273 2 -0.10786 7.21382 14.4417
274 2 1.40859 7.20909 13.8607
275 2 1.10879 5.19843 12.1297
276 2 0.142322 4.18446 11.4107
277 2 0.192301 0.569522 11.8253
278 2 0.262058 0.216297 13.3227
279 2 13.325 12.966 5.76917
280 2 12.474 12.1815 6.79075
281 2 6.96454 1.33987 0.72514
282 2 6.22808 -0.0168944 1.14781
283 2 5.28424 6.95392 7.95734
284 2 5.69738 8.44349 7.79401
285 2 4.59695 2.96295 -0.156096
286 2 4.05776 3.8329 1.0606
287 2 14.2623 2.20361 0.861912
288 2 14.7961 2.02476 15.1013
289 2 7.90736 0.984376 2.41964
290 2 8.42535 2.08554 3.23522
291 2 9.33834 3.30929 9.83257
292 2 10.1754 1.88055 10.1119
293 2 1.75381 4.52695 9.90946
294 2 1.11552 4.78978 8.54253
295 2 12.2645 0.0873025 4.07993
296 2 12.0334 14.6435 5.15054
297 2 9.97133 5.30379 5.02216
298 2 9.51596 4.30903 3.95105
299 2 9.11176 6.41377 14.7882
300 2 7.57568 6.54 14.599
301 2 2.07189 2.92609 11.9449
302 2 2.69894 1.52435 11.845
303 2 10.8501 14.3815 10.4642
304 2 10.5118 -0.206863 11.478
305 2 0.274248 12.7719 0.61942
306 2 0.108425 11.2293 1.22179
307 2 9.70727 2.84376 13.3266
308 2 10.3129 3.49932 12.1129
309 2 7.16744 3.93944 3.6373
310 2 7.68964 3.77425 2.12389
311 2 2.7812 12.2345 3.34142
312 2 4.17512 12.108 2.65722
313 2 13.4252 2.63657 7.76521
314 2 14.4885 3.85196 7.85505
315 2 1.16553 7.50623 0.684607
316 2 1.80702 6.9489 2.01705
317 2 14.4305 9.58843 13.243
318 2 13.0187 10.0336 13.4694
319 2 5.70123 2.57075 8.68482
320 2 6.80813 3.05178 9.52933
321 2 5.35787 4.80808 5.12533
322 2 5.96938 3.53575 5.71789
323 2 13.0854 2.74416 13.3668
324 2 13.871 1.59988 12.7008
325 2 8.54415 7.16809 5.28465
326 2 9.76316 8.11779 5.62097
327 2 3.5805 7.58031 10.0651
328 2 3.76188 9.05652 10.3377
329 2 4.55808 11.8882 11.3243
330 2 3.56374 12.075 12.5347
331 2 0.334551 11.7965 12.6005
332 2 0.24849 12.8839 13.5924
333 2 6.35726 8.22802 5.65351
334 2 6.38531 8.12785 4.02112
335 2 10.214 9.5859 10.0692
336 2 10.6644 8.57403 11.1276
337 2 8.95214 14.8857 9.64428
338 2 7.3584 14.7538 9.70982
339 2 0.591563 15.0693 0.0182509
340 2 1.70203 14.3696 14.7724
341 2 6.4741 3.89198 0.306924
342 2 7.8908 4.74294 0.474307
343 2 13.7745 5.25403 11.174
344 2 12.6407 6.3597 11.1641
345 2 6.61181 10.3071 13.1711
346 2 7.38294 10.2018 14.4287
347 2 5.92965 6.53312 13.3142
348 2 6.65131 8.00804 13.4902
349 2 4.1508 10.9057 6.58172
350 2 3.72612 9.43762 6.27968
351 2 0.960879 1.05271 5.33877
352 2 1.48012 2.49213 5.40543
353 2 8.71011 13.4532 1.93204
354 2 8.99593 13.78 0.520382
355 2 3.28533 0.709593 5.89467
356 2 4.52263 -0.105961 5.1872
357 2 10.8957 8.12501 1.5533
358 2 9.392 8.09909 2.00114
359 2 2.85608 14.8006 10.6062
360 2 3.90293 13.7417 11.0449
361 2 6.48734 12.6937 1.54518
362 2 7.04029 11.6822 2.67807
363 2 2.24681 10.7375 14.3261
364 2 3.668 10.6767 14.8241
365 2 12.3482 3.69431 0.972113
366 2 13.2921 3.83378 2.19605
367 2 12.5073 12.8061 9.60602
368 2 12.5354 13.311 11.1419
369 2 13.9506 6.55755 12.8999
370 2 13.4462 7.1125 14.3857
371 2 11.8334 1.45816 2.05064
372 2 10.4376 0.894116 2.52875
373 2 0.844146 1.54638 0.605455
374 2 2.39804 1.38307 0.478242
375 2 7.77884 0.12269 7.66547
376 2 8.60235 1.23456 6.91956
377 2 12.4122 11.5105 0.551261
378 2 13.9301 11.2794 0.187093
379 2 13.8259 3.47873 9.96028
380 2 13.5184 3.1733 11.5056
381 2 12.9666 3.11167 5.2382
382 2 12.0906 4.05916 4.29522
383 2 5.48443 10.7696 1.07083
384 2 5.47524 10.05 -0.286949
ITEM: TIMESTEP
200
ITEM: NUMBER OF ATOMS
384
ITEM: BOX BOUNDS pp pp pp
-3.0354783540417163e-01 1.5303547835404189e+01
-1.5323250526795196e-01 1.5153232505267979e+01
-3.8398293427416696e-01 1.5383982934274194e+01
ITEM: ATOMS id type x y z
1 1 4.45442 5.88531 13.4219
2 1 14.4706 4.1082 14.1555
3 1 7.64648 10.6976 3.82159
4 1 1.463 3.83063 4.58107
5 1 14.3936 10.2008 10.4161
6 1 10.2591 0.320501 0.121617
7 1 13.6214 9.57651 6.19324
8 1 3.33989 13.8833 8.07489
9 1 2.97711 6.45362 2.81282
10 1 5.46418 7.92682 2.57945
11 1 14.1988 6.16367 1.98727
12 1 0.386895 10.1442 14.1401
13 1 14.822 5.54452 4.97056
14 1 9.81974 6.33487 8.07493
15 1 12.4702 7.15281 3.90496
16 1 10.3821 2.50389 6.72583
17 1 4.77317 3.97225 11.516
18 1 7.76432 10.4063 11.1323
19 1 8.5806 1.75801 14.6969
20 1 5.81686 14.1849 0.48513
21 1 -0.183977 13.5093 9.95112
22 1 12.9101 1.99497 6.54019
23 1 10.7591 7.66156 14.3356
24 1 2.14924 7.7149 6.48194
25 1 10.6427 9.12116 5.76173
26 1 -0.196898 8.1862 4.84522
27 1 1.83294 11.31 4.87177
28 1 6.26808 0.757345 10.9601
29 1 12.326 8.08943 0.429309
30 1 2.1041 6.89564 12.4992
31 1 3.50498 5.60805 5.3969
32 1 7.59278 11.7972 7.90885
33 1 3.04789 3.6483 2.23571
34 1 2.98396 13.2053 0.129389
35 1 -0.161609 5.59156 7.6377
36 1 10.7741 14.4064 7.38091
37 1 1.52861 14.7881 2.49098
38 1 6.28148 0.614271 13.6798
39 1 0.132882 10.485 2.9575
40 1 12.5817 13.2569 12.4905
41 1 0.974099 12.3984 8.00692
42 1 14.1822 14.376 0.783559
43 1 -0.0327156 15.0648 4.52645
44 1 8.44881 12.9636 11.7039
45 1 12.5721 6.48654 7.00885
46 1 10.0634 10.2879 8.23884
47 1 10.5604 11.2826 13.001
48 1 8.77997 12.6531 5.34543
49 1 4.24565 1.90177 14.618
50 1 6.47112 13.2077 13.6141
51 1 4.41691 6.17074 9.47333
52 1 11.2036 0.149624 13.2905
53 1 7.57243 14.3783 3.33111
54 1 4.45769 2.21798 3.74708
55 1 12.6768 10.9973 8.533
56 1 9.00175 10.5648 -0.159041
57 1 1.87202 1.94328 8.58642
58 1 8.12371 5.40362 11.5536
59 1 1.46333 9.25051 8.54668
60 1 10.4414 10.321 3.29146
61 1 11.4425 4.60636 14.8582
62 1 10.6616 6.86142 11.0481
63 1 5.15239 10.1524 10.007
64 1 7.84491 7.94044 1.30519
65 1 14.5101 7.70964 8.67975
66 1 4.58498 14.6296 3.56488
67 1 5.94167 1.88399 6.71354
68 1 1.33646 0.645555 10.6011
69 1 11.4621 12.2051 1.45406
70 1 8.35954 4.26856 9.2952
71 1 15.0238 12.6945 5.85582
72 1 4.84265 11.6423 7.91188
73 1 0.718928 7.46548 14.6817
74 1 0.909752 4.47069 12.1581
75 1 15.0243 0.49256 12.6184
76 1 12.3258 12.2107 6.17836
77 1 6.31061 1.36009 1.58436
78 1 5.43956 8.24603 7.12437
79 1 4.78619 4.145 -0.0144532
80 1 14.9054 1.92925 0.0226432
81 1 8.64698 1.70302 2.60329
82 1 10.5184 2.77608 10.31
83 1 1.89932 4.85439 8.8142
84 1 12.8168 14.9246 4.53052
85 1 10.4756 4.71675 5.02556
86 1 8.43764 6.30649 15.1102
87 1 2.73745 2.49672 12.3798
88 1 10.0865 15.0258 10.7519
89 1 14.9292 11.8637 0.874825
90 1 9.61964 3.64896 12.7644
91 1 8.09414 4.28099 3.6537
92 1 3.36739 12.3385 2.81123
93 1 14.1203 3.33203 8.37487
94 1 0.599014 7.99161 1.86946
95 1 13.3973 10.1639 12.7888
96 1 6.213 2.88209 9.2411
97 1 5.80949 4.08145 5.10464
98 1 13.0074 2.12026 13.07
99 1 9.07494 7.11373 5.60143
100 1 3.18813 8.54391 10.4941
101 1 4.45604 11.8902 12.2909
102 1 0.415177 12.6205 12.2555
103 1 6.94342 8.43823 4.76456
104 1 10.2703 9.60335 10.8675
105 1 7.90918 14.4949 9.1319
106 1 0.998894 14.4055 14.4229
107 1 7.52069 3.83956 0.468767
108 1 13.4289 6.71239 10.977
109 1 7.03254 9.73282 13.5814
110 1 6.81676 7.06893 13.3487
111 1 4.23366 10.1704 5.62843
112 1 1.65527 1.10898 5.86401
113 1 9.12065 13.309 0.825534
114 1 4.22822 0.10256 6.07896
115 1 10.2496 7.85642 2.35527
116 1 3.97964 14.567 10.8268
117 1 5.86307 11.6028 2.00675
118 1 3.10228 10.9608 14.3639
119 1 12.6145 2.98706 1.24469
120 1 12.4334 13.7056 9.89514
121 1 13.6211 6.73595 13.9422
122 1 11.3571 1.10629 2.42341
123 1 2.06343 1.54528 0.697584
124 1 8.25481 0.538971 6.4972
125 1 12.8384 10.6311 -0.26848
126 1 14.0957 4.08126 10.9168
127 1 12.6731 4.03037 4.04371
128 1 5.20532 9.51144 0.258531
129 2 4.67926 5.24402 12.7377
130 2 4.232 5.41078 14.2169
131 2 14.2414 5.05151 14.2008
132 2 15.2274 4.04104 13.4918
133 2 7.30988 9.78654 4.21597
134 2 8.55858 10.5874 3.5144
135 2 0.664263 4.38301 4.60088
136 2 1.68478 3.82555 3.59101
137 2 15.2303 10.6584 10.4305
138 2 13.9369 10.2827 11.252
139 2 10.8543 0.768642 0.774113
140 2 9.59714 0.945189 -0.227247
141 2 13.691 9.55836 7.16821
142 2 13.4747 10.4615 5.85547
143 2 3.64276 14.4322 8.86325
144 2 3.6269 14.4393 7.28752
145 2 2.62011 5.7405 2.26857
146 2 3.12074 6.10975 3.68016
147 2 5.2384 8.63515 1.92255
148 2 4.74516 7.33875 2.58169
149 2 13.5222 6.31303 2.64725
150 2 14.7671 6.91224 2.06461
151 2 0.385284 9.26074 14.4997
152 2 0.114256 10.7204 14.8251
153 2 14.1945 5.05237 4.38788
154 2 15.1032 6.32878 4.51187
155 2 10.7158 6.15298 7.8645
156 2 9.38585 6.75139 7.33564
157 2 12.6528 7.26646 4.87088
158 2 11.5667 7.49017 3.78183
159 2 10.2686 2.95053 7.6114
160 2 10.2645 3.24663 6.03982
161 2 3.98974 3.39809 11.5207
162 2 5.37482 3.73213 10.8447
163 2 8.65226 10.0443 10.9252
164 2 7.92292 11.3531 11.1864
165 2 8.37242 2.49332 15.244
166 2 7.78271 1.51609 14.161
167 2 6.54295 13.9539 -0.109324
168 2 4.99423 14.0954 0.0229731
169 2 14.4424 13.6227 9.85389
170 2 0.105999 13.3211 10.8591
171 2 11.8764 2.10619 6.54933
172 2 12.9481 1.20654 6.00394
173 2 10.522 8.0473 13.4802
174 2 11.2324 8.31266 14.9439
175 2 1.40153 8.00384 5.87318
176 2 2.23019 8.39692 7.21968
177 2 11.6046 9.05149 5.87479
178 2 10.4953 9.71451 5.04397
179 2 14.6887 8.71127 5.22941
180 2 0.212998 8.66597 4.07362
181 2 1.0334 11.4539 5.42312
182 2 2.5292 10.7951 5.31395
183 2 6.43144 1.43955 10.2794
184 2 5.44556 0.301945 10.8943
185 2 12.7371 8.97533 0.354984
186 2 12.9534 7.52006 0.871062
187 2 2.32476 7.56566 11.8392
188 2 2.95308 6.56168 12.8033
189 2 3.21479 6.21917 6.02293
190 2 2.7499 4.96003 5.31185
191 2 7.54024 12.7089 8.3108
192 2 8.04898 11.9259 7.01332
193 2 2.65012 3.14357 1.51231
194 2 3.59865 3.05538 2.78196
195 2 2.81817 12.4135 -0.313372
196 2 3.07594 12.9129 1.02978
197 2 -0.148501 5.81717 6.70394
198 2 15.1204 6.49954 7.9949
199 2 11.4948 14.8012 7.87791
200 2 11.255 13.5939 7.08098
201 2 2.17171 14.0978 2.46083
202 2 1.77099 0.023092 1.71078
203 2 6.25064 14.9124 13.7851
204 2 6.28542 0.685622 12.6509
205 2 0.441224 9.78007 2.40087
206 2 0.789187 10.8488 3.53295
207 2 12.194 13.9799 12.9691
208 2 12.1022 12.4421 12.8085
209 2 1.87257 12.8244 8.00525
210 2 0.440128 12.9505 8.67836
211 2 14.2551 0.0153686 1.00648
212 2 13.7486 14.3628 -0.119761
213 2 14.6396 14.995 4.33546
214 2 0.508302 14.9682 3.71307
215 2 8.78765 13.6109 11.1005
216 2 9.30293 12.6482 12.1095
217 2 13.1773 6.97437 7.60719
218 2 13.1327 5.78568 6.61328
219 2 9.21629 10.8062 8.32796
220 2 10.0439 9.86624 7.36249
221 2 10.4007 10.5127 12.4024
222 2 10.2366 11.2236 13.896
223 2 9.69023 12.2546 5.55235
224 2 8.35107 11.8971 4.84405
225 2 5.07658 1.44788 14.3565
226 2 3.66631 2.05181 13.8316
227 2 7.27517 13.0326 13.027
228 2 5.70955 12.9328 12.9968
229 2 3.6932 5.50574 9.43545
230 2 4.89517 5.72988 10.176
231 2 10.7733 0.173875 14.152
232 2 11.8746 0.86008 13.4049
233 2 7.86646 -0.0279415 3.16814
234 2 7.98979 14.1482 4.19783
235 2 4.64537 1.58575 3.07733
236 2 5.18778 2.69002 4.17303
237 2 13.2096 11.0891 9.35427
238 2 11.7879 10.6112 8.71979
239 2 8.76395 9.78812 0.361392
240 2 8.94022 11.3436 0.401853
241 2 1.73376 1.65818 7.67575
242 2 1.95694 2.90751 8.62058
243 2 8.516 4.64538 12.1216
244 2 7.41099 5.67999 12.1349
245 2 2.04084 9.03967 9.36797
246 2 1.24999 10.1919 8.57448
247 2 10.8799 10.9216 2.64794
248 2 10.3821 9.40917 2.80425
249 2 11.6171 5.45572 14.4477
250 2 10.8601 4.11769 14.319
251 2 10.5149 6.40187 10.1079
252 2 9.81749 6.70035 11.365
253 2 6.15294 10.0624 10.2333
254 2 5.03484 10.8668 9.29024
255 2 7.79668 7.273 0.601853
256 2 7.06322 7.97485 1.8418
257 2 14.2232 7.44265 9.59418
258 2 15.1853 8.40746 8.7929
259 2 5.56736 14.5595 3.47914
260 2 4.21186 13.818 3.18222
261 2 6.79675 1.33081 6.68133
262 2 5.17644 1.23113 6.40318
263 2 1.5341 1.28005 9.79728
264 2 0.719382 0.0105643 10.3143
265 2 10.7352 12.8554 1.42932
266 2 12.2975 12.6623 1.79116
267 2 8.27793 4.81238 10.1593
268 2 8.8253 4.92105 8.7031
269 2 -0.286716 13.4957 5.37381
270 2 -0.00342312 12.6175 6.67505
271 2 5.79665 11.8159 7.64965
272 2 4.39036 12.5397 7.94838
273 2 -0.146377 7.04496 14.6304
274 2 1.18287 7.32176 13.7769
275 2 1.08571 5.42422 12.1356
276 2 0.17866 4.33284 11.5622
277 2 0.137914 0.642604 11.9135
278 2 -0.0547 0.0774009 13.3601
279 2 13.3199 12.2922 6.11248
280 2 12.2055 11.7261 7.01659
281 2 5.87946 1.99764 1.01967
282 2 6.16752 0.456958 1.29382
283 2 5.05785 7.44408 7.48607
284 2 5.69747 8.81483 7.89844
285 2 4.49928 3.27892 15.2977
286 2 4.17232 4.13502 0.761181
287 2 14.2205 2.31752 0.578888
288 2 15.0228 2.62346 15.1107
289 2 7.98444 1.69478 1.87633
290 2 8.42898 2.58085 2.99387
291 2 9.67635 3.18251 9.89832
292 2 10.7933 1.93534 10.0859
293 2 1.52194 4.81443 9.70743
294 2 1.13453 5.13625 8.25997
295 2 12.2876 -0.0917269 3.81503
296 2 12.3514 14.2607 5.05562
297 2 10.3413 5.6726 5.22234
298 2 9.64775 4.54325 4.49416
299 2 9.37571 6.48365 15.1098
300 2 8.03673 6.68376 14.3098
301 2 2.12221 3.2612 12.4335
302 2 2.23261 1.84482 11.8664
303 2 10.914 14.6 10.5142
304 2 10.2999 0.0445788 11.6583
305 2 14.9177 12.8175 0.67998
306 2 -0.247622 11.6632 1.78129
307 2 9.16422 2.85714 13.1492
308 2 10.018 3.20103 11.9933
309 2 7.23604 4.35431 4.04316
310 2 8.12049 4.74914 2.82762
311 2 2.83285 11.9882 3.61436
312 2 4.1389 11.7843 2.78149
313 2 13.8493 2.70001 7.77123
314 2 14.4182 4.09508 7.88806
315 2 0.887712 7.63884 1.01758
316 2 1.29376 7.55521 2.44203
317 2 14.2043 9.90344 13.1382
318 2 12.9631 10.6618 13.5427
319 2 5.92771 2.80417 8.2771
320 2 6.9463 3.477 9.08966
321 2 5.00485 4.56672 5.35552
322 2 5.94038 3.53092 5.89501
323 2 13.2966 2.74339 13.7516
324 2 13.7748 1.64866 12.7697
325 2 8.2146 7.19158 5.17463
326 2 9.58024 7.93029 5.53713
327 2 3.54441 7.65074 10.2892
328 2 3.96968 9.09764 10.2798
329 2 4.78743 11.1827 11.7411
330 2 4.04299 11.3909 13.0542
331 2 0.542633 11.7058 12.5653
332 2 0.681348 13.1658 13.0448
333 2 6.32052 8.44197 5.46744
334 2 6.43557 8.29589 3.95551
335 2 10.2718 9.88008 9.90855
336 2 10.4655 8.60831 10.8975
337 2 8.82642 14.7527 9.33565
338 2 7.31609 15.0856 9.61887
339 2 0.460691 14.7044 15.1679
340 2 1.83782 14.1107 14.8073
341 2 6.55832 4.15857 0.629792
342 2 7.95192 4.60608 0.0825986
343 2 13.5551 5.7911 10.8592
344 2 12.4423 6.82478 10.8459
345 2 7.0681 10.0162 12.6379
346 2 7.68667 10.313 13.9946
347 2 5.86799 6.71142 13.4619
348 2 6.89159 8.06586 13.2333
349 2 4.38987 10.6562 6.45641
350 2 4.17178 9.25976 5.89577
351 2 0.906752 0.572466 5.4941
352 2 1.53186 1.91702 5.36087
353 2 8.85622 13.5698 1.77342
354 2 9.54456 14.0967 0.411461
355 2 3.3376 0.545451 5.76457
356 2 4.57319 15.0606 5.24878
357 2 10.9026 7.80598 1.60461
358 2 9.35567 7.68352 1.97852
359 2 3.07947 14.9689 10.8624
360 2 3.86869 13.6196 11.1327
361 2 6.14581 12.4821 1.65206
362 2 6.53071 11.3645 2.70161
363 2 2.29401 10.4721 14.194
364 2 3.66521 10.3121 14.8207
365 2 12.1108 3.39351 0.473186
366 2 12.6884 3.67645 1.98567
367 2 12.2075 12.9059 9.41927
368 2 12.6249 13.3856 10.7879
369 2 13.5582 6.856 12.9656
370 2 13.0264 7.23014 14.469
371 2 11.6835 1.94615 2.13429
372 2 10.4107 1.33147 2.60033
373 2 1.22222 1.68503 0.242603
374 2 2.76312 1.40944 -0.00608496
375 2 8.5782 -0.134082 7.09531
376 2 9.01652 1.09897 6.43864
377 2 12.0889 11.0176 0.179323
378 2 13.5775 11.084 0.182403
379 2 14.1024 3.69146 9.9546
380 2 13.5081 3.42626 11.3276
381 2 12.7496 3.26911 4.64386
382 2 11.899 4.53778 4.39628
383 2 5.6209 10.2812 0.688984
384 2 5.75097 9.3811 15.1954
ITEM: TIMESTEP
400
ITEM: NUMBER OF ATOMS
384
ITEM: BOX BOUNDS pp pp pp
-3.3092046442542511e-01 1.5330920464425443e+01
-2.8588110375592546e-01 1.5285881103755955e+01
-1.3856646828987529e-01 1.5138566468289891e+01
ITEM: ATOMS id type x y z
1 1 4.24394 5.78059 13.15
2 1 14.7464 4.12715 14.1366
3 1 7.32047 10.8164 3.63817
4 1 1.63 3.45716 4.63766
5 1 14.45 10.0897 10.635
6 1 10.1565 -0.12876 0.222242
7 1 13.944 9.7443 6.29558
8 1 3.47309 13.7782 8.35943
9 1 2.84293 6.28618 2.72509
10 1 5.43525 7.45895 2.27216
11 1 13.95 6.39214 2.19524
12 1 0.295009 10.5542 14.1749
13 1 -0.272261 5.1231 4.97701
14 1 10.16 6.46564 8.21118
15 1 12.5864 6.8197 4.46378
16 1 10.5127 2.58061 7.01744
17 1 4.67512 3.85828 11.0943
18 1 7.6388 10.95 10.7441
19 1 8.57882 1.92266 14.8978
20 1 5.82065 13.7449 0.815881
21 1 -0.265791 13.9938 10.1139
22 1 13.0231 1.80373 5.78769
23 1 10.6346 7.51614 13.4609
24 1 2.23036 7.93769 6.14473
25 1 11.0278 9.19578 5.947
26 1 -0.237926 7.80167 4.86943
27 1 1.95317 11.5607 5.20672
28 1 5.94597 0.74857 10.5963
29 1 12.4275 7.62253 0.596808
30 1 1.81185 6.99822 12.6231
31 1 3.40196 5.37697 5.20759
32 1 7.90074 12.0856 7.93634
33 1 3.31308 3.72764 2.14325
34 1 3.11997 13.1684 0.107034
35 1 0.11769 5.3462 7.71157
36 1 10.5802 14.5175 7.35397
37 1 1.50732 14.8376 2.3504
38 1 6.25118 0.864863 13.396
39 1 -0.0113979 10.5486 3.55727
40 1 12.497 13.3335 12.0397
41 1 1.23934 12.4512 8.12946
42 1 14.8358 14.5702 0.934897
43 1 -0.15265 14.8381 4.43957
44 1 8.60148 13.2104 11.9612
45 1 12.5485 6.28327 7.21907
46 1 10.1931 10.3359 8.21408
47 1 10.4348 11.3916 12.7567
48 1 8.50148 12.5546 5.42599
49 1 3.94414 1.82928 14.0778
50 1 6.29341 13.5463 13.3129
51 1 4.20412 6.27039 9.01311
52 1 11.2466 0.341407 12.8527
53 1 7.61687 14.6298 3.71778
54 1 4.15648 2.16335 4.0356
55 1 12.8686 11.2049 8.69879
56 1 9.23934 10.5737 -0.0730137
57 1 2.61668 1.73591 8.57598
58 1 8.43917 5.02819 11.6555
59 1 1.14689 9.62781 8.62776
60 1 10.1873 10.2323 3.67179
61 1 11.6795 4.29157 14.3152
62 1 10.0439 7.04274 10.8157
63 1 5.24865 10.2601 9.861
64 1 8.07999 7.77718 1.63473
65 1 14.4805 7.7494 8.40013
66 1 4.65849 14.7369 3.88047
67 1 6.23232 1.40905 6.64119
68 1 1.6595 0.229391 10.3187
69 1 11.2703 12.35 2.20571
70 1 8.96526 4.14456 9.07089
71 1 14.9167 12.6031 6.01736
72 1 5.32392 11.7094 7.52762
73 1 0.367724 8.0364 14.6189
74 1 0.601787 4.7309 11.8752
75 1 14.611 0.340463 12.5914
76 1 12.2097 12.8804 6.092
77 1 5.72623 1.16481 1.36693
78 1 5.39427 8.40636 7.53724
79 1 4.7982 4.26483 0.0604119
80 1 15.1407 1.96127 0.483428
81 1 8.33211 1.74493 2.9685
82 1 10.7636 2.28194 10.4679
83 1 2.16297 4.69113 9.3516
84 1 12.7356 15.0052 4.19318
85 1 10.0767 4.57445 5.3922
86 1 8.49059 6.15468 14.4699
87 1 2.2822 2.48221 11.9675
88 1 10.4402 15.0098 10.5454
89 1 15.0409 11.679 1.20852
90 1 9.85709 3.11219 12.8011
91 1 7.89769 4.30003 3.6564
92 1 2.92949 12.5406 2.88904
93 1 14.4729 3.13085 8.48728
94 1 1.06534 8.18286 1.96629
95 1 13.6139 10.1225 13.0849
96 1 6.32275 3.15395 8.91005
97 1 5.91852 4.11903 5.52063
98 1 12.9447 2.44372 12.5412
99 1 8.85222 7.3967 6.17724
100 1 3.07869 8.39878 10.289
101 1 4.43148 12.0561 11.833
102 1 1.06143 12.3799 12.2013
103 1 6.61767 8.37522 4.95813
104 1 10.04 9.67643 10.8129
105 1 7.88789 15.0059 8.80222
106 1 1.08498 14.3268 14.154
107 1 7.45108 4.29568 1.03535
108 1 12.7475 6.90963 11.0868
109 1 7.0316 9.81068 13.8413
110 1 6.64273 7.14706 12.9822
111 1 4.18292 10.0415 5.56165
112 1 1.36061 1.12501 6.06092
113 1 8.61588 13.1734 1.37188
114 1 3.65498 -0.200954 6.31487
115 1 10.7453 7.86754 2.63897
116 1 3.89832 14.6657 10.8684
117 1 5.21442 11.4903 1.96498
118 1 3.17945 10.841 14.1986
119 1 12.7641 3.14714 1.44406
120 1 12.8075 13.881 9.44981
121 1 13.9206 6.90671 13.5095
122 1 11.0832 1.05046 2.73103
123 1 2.0915 1.52037 0.863429
124 1 8.80284 0.461126 5.83699
125 1 12.3687 10.4824 0.299356
126 1 13.8131 4.40095 10.9527
127 1 13.1618 3.86493 4.29821
128 1 4.91188 9.49572 0.28358
129 2 4.50197 5.22699 12.3515
130 2 4.23236 5.12819 13.9519
131 2 14.0837 4.85274 14.2598
132 2 -0.31986 4.44366 13.4513
133 2 6.83034 10.0728 4.08888
134 2 8.10923 10.3627 3.34817
135 2 0.841341 4.01812 4.40436
136 2 2.11329 3.33614 3.77119
137 2 15.3272 10.4942 10.6421
138 2 14.0502 9.98331 11.5331
139 2 10.6402 0.191629 1.0094
140 2 9.395 0.480575 0.0633684
141 2 13.8258 9.83048 7.23287
142 2 14.2659 10.5602 5.90697
143 2 3.77667 14.1199 9.1858
144 2 3.54001 14.4703 7.67626
145 2 3.05062 5.28581 2.68512
146 2 3.00887 6.41878 3.65798
147 2 5.33061 8.13095 1.60363
148 2 4.52233 7.11205 2.42446
149 2 13.6041 6.60964 3.09699
150 2 14.868 6.64799 2.1756
151 2 0.336047 9.57936 14.4199
152 2 0.187586 11.0511 15.0179
153 2 14.4886 4.69272 4.86623
154 2 15.2167 6.05179 4.64802
155 2 11.1201 6.56168 7.94245
156 2 9.46274 6.87467 7.59158
157 2 12.2286 6.78613 5.32524
158 2 11.8524 7.26997 3.9242
159 2 10.1134 2.69417 7.88883
160 2 10.2839 3.42662 6.56567
161 2 3.77661 3.48362 11.2013
162 2 5.00334 3.67233 10.2247
163 2 8.47295 10.447 10.5748
164 2 7.93919 11.8618 10.9323
165 2 8.31276 2.68818 0.190047
166 2 7.75389 1.45298 14.6569
167 2 6.6386 13.8008 0.311416
168 2 5.08013 13.8755 0.161086
169 2 14.4968 14.0359 9.74795
170 2 -0.282593 13.3633 10.8498
171 2 12.1369 1.74436 6.29386
172 2 13.2896 0.872407 5.64089
173 2 10.9959 7.09051 12.6715
174 2 11.1575 8.2515 13.8847
175 2 1.26403 7.74944 6.00986
176 2 2.2309 8.07887 7.15357
177 2 12.003 9.10958 6.03392
178 2 10.724 9.80019 5.1879
179 2 14.7618 8.30493 5.35251
180 2 0.240755 8.37848 4.24896
181 2 1.51174 11.9844 5.93513
182 2 2.64519 10.9558 5.51182
183 2 5.8545 1.34789 9.83898
184 2 5.25902 0.0424924 10.7924
185 2 12.7006 8.55258 0.53926
186 2 13.0207 7.22016 1.28494
187 2 2.13828 7.6743 11.9929
188 2 2.68097 6.61274 12.9469
189 2 3.2661 6.15923 5.754
190 2 2.66808 4.77015 5.18178
191 2 7.9029 12.9131 8.48498
192 2 8.2069 12.3623 7.02102
193 2 2.68611 3.19409 1.58471
194 2 3.83673 3.01994 2.5821
195 2 3.09475 12.2673 15.0311
196 2 2.70057 13.0507 0.964138
197 2 -0.0392182 5.28898 6.75097
198 2 -0.145008 6.2498 7.87217
199 2 11.2137 15.086 7.8416
200 2 11.1614 13.9025 6.89379
201 2 2.13847 14.1365 2.5149
202 2 1.89844 -0.0926641 1.697
203 2 6.21889 -0.166501 13.3605
204 2 6.32105 1.05101 12.4627
205 2 0.413118 9.83745 3.08435
206 2 0.65133 11.0203 4.12018
207 2 12.5213 14.186 12.5482
208 2 11.996 12.6099 12.5023
209 2 2.17422 12.8884 8.27529
210 2 0.713208 12.6743 8.89141
211 2 -0.115029 14.497 1.62291
212 2 14.7103 -0.0525999 0.740643
213 2 14.549 14.8733 4.14147
214 2 0.46643 14.7979 3.70983
215 2 9.19676 13.7378 11.3726
216 2 9.30035 12.62 12.3923
217 2 13.2262 6.7848 7.73243