ITEM: TIMESTEP
0
ITEM: NUMBER OF ATOMS
384
ITEM: BOX BOUNDS pp pp pp
0.0000000000000000e+00 1.5645677530000000e+01
0.0000000000000000e+00 1.4707145290000000e+01
0.0000000000000000e+00 1.8073037029999998e+01
ITEM: ATOMS id type x y z
1 1 1.38 1.76 3.37
2 1 5.2 4.47 1.11
3 1 6.59 5.39 3.31
4 1 5.28 4.49 5.56
5 1 2.59 0.84 5.67
6 1 2.69 5.43 5.56
7 1 5.2 1.71 1.07
8 1 5.2 1.73 5.58
9 1 1.32 4.61 7.82
10 1 1.3 4.52 3.36
11 1 2.61 5.41 1.1
12 1 2.59 0.82 1.07
13 1 6.54 0.87 3.33
14 1 6.54 0.88 7.83
15 1 6.51 5.4 7.86
16 1 1.35 1.85 7.92
17 1 9.2 1.76 3.37
18 1 13.05 4.55 1.15
19 1 14.35 5.46 3.4
20 1 13.1 4.49 5.66
21 1 10.41 0.84 5.67
22 1 10.51 5.43 5.65
23 1 13.07 1.79 1.07
24 1 13.02 1.73 5.58
25 1 9.15 4.61 7.91
26 1 9.2 4.52 3.4
27 1 10.45 5.49 1.15
28 1 10.49 0.82 1.12
29 1 14.36 0.87 3.33
30 1 14.36 0.88 7.83
31 1 14.36 5.48 7.9
32 1 9.17 1.85 7.92
33 1 1.3 9.11 3.32
34 1 5.3 11.9 1.11
35 1 6.53 12.81 3.4
36 1 5.2 11.84 5.61
37 1 2.59 8.19 5.58
38 1 2.61 12.79 5.61
39 1 5.25 9.14 1.16
40 1 5.2 9.08 5.67
41 1 1.32 11.96 7.91
42 1 1.38 11.87 3.31
43 1 2.69 12.77 1.06
44 1 2.67 8.17 1.12
45 1 6.49 8.14 3.42
46 1 6.49 8.16 7.92
47 1 6.53 12.83 7.81
48 1 1.35 9.21 7.83
49 1 9.09 9.19 3.37
50 1 13.13 11.9 1.11
51 1 14.44 12.82 3.35
52 1 13.1 11.84 5.56
53 1 10.41 8.19 5.58
54 1 10.51 12.79 5.65
55 1 12.99 9.14 1.12
56 1 13.02 9.08 5.67
57 1 9.12 11.89 7.86
58 1 9.15 11.95 3.4
59 1 10.51 12.77 1.15
60 1 10.38 8.25 1.12
61 1 14.29 8.22 3.37
62 1 14.36 8.24 7.92
63 1 14.36 12.83 7.81
64 1 9.12 9.13 7.83
65 1 1.35 1.83 12.45
66 1 5.2 4.47 10.14
67 1 6.59 5.39 12.34
68 1 5.3 4.56 14.65
69 1 2.67 0.84 14.66
70 1 2.69 5.43 14.6
71 1 5.28 1.71 10.15
72 1 5.25 1.81 14.61
73 1 1.32 4.61 16.85
74 1 1.32 4.59 12.35
75 1 2.63 5.49 10.09
76 1 2.64 0.89 10.2
77 1 6.57 0.79 12.41
78 1 6.54 0.88 16.87
79 1 6.53 5.48 16.94
80 1 1.35 1.85 16.86
81 1 9.2 1.76 12.41
82 1 13.02 4.47 10.14
83 1 14.35 5.46 12.34
84 1 13.05 4.57 14.6
85 1 10.46 0.91 14.71
86 1 10.46 5.51 14.69
87 1 13.1 1.71 10.15
88 1 13.07 1.81 14.61
89 1 9.15 4.61 16.94
90 1 9.2 4.52 12.44
91 1 10.45 5.49 10.18
92 1 10.49 0.82 10.16
93 1 14.39 0.79 12.41
94 1 14.36 0.88 16.87
95 1 14.33 5.4 16.89
96 1 9.17 1.85 16.96
97 1 1.3 9.11 12.45
98 1 5.28 11.83 10.1
99 1 6.59 12.74 12.34
100 1 5.3 11.92 14.65
101 1 2.59 8.19 14.71
102 1 2.69 12.79 14.6
103 1 5.2 9.07 10.2
104 1 5.17 9.16 14.66
105 1 1.38 11.89 16.85
106 1 1.38 11.87 12.35
107 1 2.71 12.84 10.14
108 1 2.56 8.25 10.16
109 1 6.49 8.14 12.46
110 1 6.46 8.24 16.91
111 1 6.61 12.83 16.89
112 1 1.3 9.13 16.96
113 1 9.09 9.19 12.41
114 1 13.13 11.9 10.14
115 1 14.41 12.74 12.44
116 1 13.1 11.84 14.69
117 1 10.38 8.27 14.66
118 1 10.53 12.86 14.64
119 1 12.99 9.14 10.15
120 1 13.02 9.08 14.7
121 1 9.23 11.96 16.9
122 1 9.23 11.95 12.39
123 1 10.51 12.77 10.09
124 1 10.38 8.25 10.16
125 1 14.29 8.22 12.41
126 1 14.31 8.16 16.96
127 1 14.44 12.83 16.89
128 1 9.09 9.21 16.91
129 2 0.46 1.48 3.37
130 2 1.33 2.71 3.37
131 2 5.68 4.81 1.86
132 2 5.67 4.81 0.35
133 2 6.13 5.1 4.1
134 2 6.56 6.34 3.34
135 2 4.38 4.84 5.6
136 2 5.7 4.83 6.36
137 2 2.17 1.18 4.88
138 2 3.49 1.17 5.63
139 2 2.23 5.15 6.35
140 2 2.65 6.39 5.59
141 2 5.65 1.43 1.86
142 2 5.23 2.67 1.1
143 2 5.23 2.69 5.61
144 2 5.65 1.45 6.37
145 2 1.78 4.88 8.61
146 2 1.33 3.65 7.85
147 2 1.78 4.85 4.11
148 2 1.78 4.85 2.6
149 2 3.52 5.14 1.1
150 2 2.64 6.37 1.11
151 2 3.49 1.15 1.11
152 2 2.17 1.16 1.87
153 2 6.09 1.14 4.12
154 2 6.53 14.6171 3.37
155 2 6.09 1.15 8.63
156 2 6.53 14.6371 7.86
157 2 7.43 5.14 7.86
158 2 6.53 6.36 7.86
159 2 1.77 1.51 7.13
160 2 0.46 1.51 7.89
161 2 9.16 2.71 3.37
162 2 8.28 1.48 3.37
163 2 13.06 3.59 1.12
164 2 13.5 4.82 0.36
165 2 13.94 5.12 2.61
166 2 15.25 5.14 3.36
167 2 13.52 4.82 4.86
168 2 12.21 4.84 5.62
169 2 11.31 1.17 5.63
170 2 10 1.18 4.88
171 2 10.47 6.39 5.62
172 2 10.05 5.15 4.86
173 2 12.18 1.46 1.11
174 2 13.49 1.45 1.86
175 2 13.05 2.69 5.61
176 2 13.48 1.45 6.37
177 2 9.61 4.88 7.11
178 2 9.16 3.65 7.88
179 2 8.3 4.84 3.36
180 2 9.61 4.85 2.61
181 2 10.04 5.17 0.35
182 2 11.35 5.14 1.11
183 2 10.02 1.16 0.36
184 2 10.02 1.16 1.88
185 2 13.91 1.14 4.12
186 2 14.35 14.6171 3.37
187 2 13.91 1.15 8.63
188 2 14.36 14.6371 7.86
189 2 13.94 5.14 7.11
190 2 15.26 5.16 7.86
191 2 8.28 1.51 7.89
192 2 9.59 1.51 7.13
193 2 1.75 8.83 4.12
194 2 1.33 10.07 3.36
195 2 4.39 12.19 1.1
196 2 5.25 10.94 1.11
197 2 7.43 12.49 3.36
198 2 6.12 12.48 2.61
199 2 5.68 12.17 4.85
200 2 5.68 12.18 6.37
201 2 2.17 8.54 6.37
202 2 3.49 8.52 5.61
203 2 2.64 13.74 5.61
204 2 3.52 12.51 5.61
205 2 4.35 8.81 1.13
206 2 5.66 8.81 0.36
207 2 5.23 10.04 5.63
208 2 5.65 8.8 4.88
209 2 1.78 12.24 7.11
210 2 1.34 11.01 7.88
211 2 0.48 12.2 3.35
212 2 1.79 12.21 4.11
213 2 2.23 12.49 1.85
214 2 2.65 13.72 1.09
215 2 2.19 8.52 1.88
216 2 2.2 8.52 0.36
217 2 7.38 8.49 3.39
218 2 6.07 8.48 2.63
219 2 6.07 8.5 7.13
220 2 7.38 8.51 7.89
221 2 6.12 12.49 8.61
222 2 7.43 12.51 7.85
223 2 0.46 8.86 7.86
224 2 1.77 8.86 8.62
225 2 9.57 8.85 4.13
226 2 9.57 8.84 2.61
227 2 12.21 12.19 1.1
228 2 13.08 10.94 1.11
229 2 13.95 12.48 2.6
230 2 13.95 12.48 4.11
231 2 13.52 12.18 6.36
232 2 12.21 12.19 5.6
233 2 11.31 8.52 5.61
234 2 10 8.54 6.37
235 2 10.47 13.74 5.62
236 2 10.05 12.51 4.86
237 2 13.47 8.8 1.87
238 2 13.47 8.81 0.36
239 2 13.48 8.8 4.88
240 2 13.05 10.04 5.63
241 2 9.6 12.22 8.62
242 2 9.6 12.22 7.11
243 2 9.16 10.99 3.37
244 2 9.61 12.22 2.61
245 2 10.48 13.72 1.13
246 2 10.05 12.49 0.35
247 2 11.3 8.53 1.12
248 2 10.43 7.29 1.11
249 2 15.2 8.51 3.37
250 2 14.34 7.26 3.37
251 2 14.36 7.28 7.88
252 2 13.91 8.52 7.13
253 2 15.26 12.51 7.85
254 2 13.94 12.49 8.61
255 2 9.15 10.09 7.86
256 2 9.57 8.85 8.62
257 2 1.77 1.49 11.66
258 2 0.46 1.49 12.42
259 2 5.68 4.81 10.9
260 2 5.67 4.81 9.38
261 2 6.56 6.34 12.38
262 2 6.13 5.1 13.14
263 2 4.39 4.85 14.65
264 2 5.25 3.61 14.65
265 2 2.19 1.18 13.9
266 2 2.19 1.18 15.42
267 2 2.23 5.15 15.39
268 2 2.65 6.39 14.63
269 2 4.36 1.44 10.15
270 2 5.24 2.67 10.15
271 2 4.35 1.48 14.65
272 2 5.66 1.47 15.41
273 2 1.78 4.88 17.65
274 2 1.33 3.65 16.89
275 2 1.78 4.87 13.14
276 2 1.34 3.64 12.39
277 2 2.21 5.16 10.89
278 2 3.52 5.14 10.13
279 2 2.19 1.18 9.41
280 2 2.63 14.6471 10.16
281 2 6.09 1.13 11.65
282 2 6.09 1.14 13.17
283 2 6.53 14.6371 16.9
284 2 6.09 1.15 17.67
285 2 7.43 5.16 16.9
286 2 6.12 5.14 16.15
287 2 0.46 1.51 16.89
288 2 1.77 1.51 17.66
289 2 8.28 1.48 12.41
290 2 9.16 2.71 12.4
291 2 13.5 4.81 9.38
292 2 13.5 4.81 10.9
293 2 15.25 5.14 12.39
294 2 13.94 5.13 13.14
295 2 13.51 4.84 15.39
296 2 13.06 3.61 14.64
297 2 10.46 14.6671 14.67
298 2 10.01 1.19 13.91
299 2 11.35 5.16 14.65
300 2 10.04 5.17 13.9
301 2 13.07 2.67 10.15
302 2 12.18 1.44 10.15
303 2 13.49 1.47 15.41
304 2 12.18 1.48 14.65
305 2 9.16 3.65 16.91
306 2 9.61 4.88 16.15
307 2 9.61 4.85 11.64
308 2 8.3 4.84 12.4
309 2 10.04 5.17 9.39
310 2 11.35 5.14 10.15
311 2 10.02 1.16 10.91
312 2 10.02 1.16 9.4
313 2 13.92 1.13 11.65
314 2 13.92 1.14 13.17
315 2 13.91 1.15 17.67
316 2 14.36 14.6371 16.9
317 2 14.36 6.36 16.9
318 2 15.25 5.14 16.9
319 2 8.28 1.51 16.93
320 2 9.59 1.51 16.17
321 2 1.75 8.83 11.66
322 2 1.33 10.07 12.41
323 2 5.7 12.16 10.89
324 2 4.38 12.17 10.13
325 2 6.13 12.46 13.14
326 2 6.56 13.7 12.38
327 2 4.39 12.21 14.65
328 2 5.25 10.96 14.65
329 2 3.49 8.52 14.67
330 2 2.17 8.53 13.91
331 2 2.65 13.74 14.63
332 2 2.23 12.5 15.39
333 2 5.22 10.02 10.17
334 2 5.65 8.79 9.4
335 2 5.65 8.81 13.9
336 2 5.65 8.82 15.42
337 2 0.48 12.22 16.89
338 2 1.79 12.22 17.65
339 2 0.48 12.2 12.39
340 2 1.79 12.21 13.14
341 2 2.23 12.52 9.38
342 2 2.23 12.51 10.89
343 2 2.61 7.29 10.15
344 2 3.48 8.53 10.16
345 2 7.38 8.49 12.42
346 2 6.07 8.48 11.66
347 2 6.52 7.28 16.91
348 2 7.37 8.53 16.91
349 2 6.14 12.5 17.65
350 2 6.13 12.5 16.14
351 2 1.75 8.84 16.16
352 2 1.33 10.09 16.92
353 2 9.57 8.85 13.16
354 2 9.57 8.84 11.65
355 2 13.08 10.94 10.15
356 2 12.21 12.19 10.14
357 2 14.37 13.7 12.41
358 2 13.95 12.46 11.65
359 2 12.21 12.19 14.66
360 2 13.52 12.17 13.9
361 2 11.3 8.55 14.66
362 2 10.43 7.31 14.66
363 2 10.05 12.53 15.4
364 2 10.05 12.52 13.89
365 2 13.47 8.81 9.39
366 2 13.47 8.8 10.91
367 2 13.48 8.8 13.91
368 2 13.05 10.04 14.67
369 2 9.19 11.01 16.9
370 2 8.31 12.24 16.9
371 2 8.31 12.22 12.39
372 2 9.19 10.99 12.4
373 2 10.48 13.72 10.13
374 2 10.05 12.49 10.88
375 2 10.43 7.29 10.15
376 2 11.3 8.53 10.16
377 2 15.2 8.51 12.41
378 2 14.34 7.26 12.4
379 2 15.2 8.51 16.93
380 2 13.89 8.5 16.17
381 2 13.96 12.5 17.65
382 2 13.95 12.5 16.14
383 2 9.57 8.86 16.15
384 2 9.56 8.86 17.67
ITEM: TIMESTEP
200
ITEM: NUMBER OF ATOMS
384
ITEM: BOX BOUNDS pp pp pp
2.8858364245103463e-01 1.5357093887548951e+01
1.7336498009609524e-01 1.4533780309903905e+01
3.7071230057857107e-01 1.7702324729421424e+01
ITEM: ATOMS id type x y z
1 1 1.56496 1.89184 3.58007
2 1 5.33443 4.59641 1.42531
3 1 6.60378 5.51553 3.59521
4 1 5.30889 4.58998 5.76785
5 1 2.82859 0.985467 5.74086
6 1 2.81565 5.52298 5.72424
7 1 5.31757 1.92533 1.39498
8 1 5.35937 1.90446 5.74229
9 1 1.56169 4.57973 7.90186
10 1 1.55891 4.57195 3.553
11 1 2.82621 5.49887 1.40194
12 1 2.82323 0.981636 1.44855
13 1 6.57451 1.00119 3.55563
14 1 6.6004 0.964518 7.93373
15 1 6.59903 5.50758 7.92581
16 1 1.57712 1.90448 7.93068
17 1 9.09696 1.89367 3.60727
18 1 12.8611 4.59867 1.41382
19 1 14.1192 5.48462 3.58859
20 1 12.8563 4.61086 5.78224
21 1 10.3764 0.989634 5.74768
22 1 10.3471 5.49653 5.78154
23 1 12.892 1.90067 1.39006
24 1 12.8959 1.92125 5.75281
25 1 9.09638 4.56245 7.96554
26 1 9.09964 4.57505 3.59875
27 1 10.3745 5.55753 1.45477
28 1 10.379 1.0426 1.4365
29 1 14.1026 0.984932 3.5779
30 1 14.1464 0.995019 7.93218
31 1 14.1516 5.50987 7.91581
32 1 9.0958 1.89355 7.91805
33 1 1.54133 9.08066 3.59544
34 1 5.37377 11.7545 1.39655
35 1 6.61551 12.6753 3.58963
36 1 5.33006 11.7748 5.76141
37 1 2.77798 8.20541 5.78365
38 1 2.82423 12.673 5.73179
39 1 5.30454 9.09886 1.44606
40 1 5.30306 9.08855 5.77923
41 1 1.5702 11.7419 7.92073
42 1 1.5918 11.7416 3.55523
43 1 2.8701 12.6769 1.38885
44 1 2.80002 8.16169 1.42685
45 1 6.55971 8.17718 3.62633
46 1 6.54767 8.16192 7.93156
47 1 6.62804 12.6595 7.91153
48 1 1.52686 9.09587 7.94367
49 1 9.08532 9.08561 3.60684
50 1 12.8848 11.77 1.43167
51 1 14.1539 12.6835 3.59065
52 1 12.8971 11.7984 5.77026
53 1 10.329 8.18929 5.78114
54 1 10.3766 12.6827 5.77094
55 1 12.8101 9.09441 1.45319
56 1 12.8446 9.0973 5.75953
57 1 9.13375 11.7323 7.93506
58 1 9.11424 11.7561 3.59004
59 1 10.4004 12.7189 1.43669
60 1 10.3078 8.20407 1.42985
61 1 14.0979 8.16894 3.58642
62 1 14.0659 8.1732 7.94534
63 1 14.1672 12.7095 7.9477
64 1 9.03742 9.08632 7.9374
65 1 1.57835 1.91259 12.2569
66 1 5.32881 4.58264 10.0823
67 1 6.59918 5.5257 12.2305
68 1 5.33687 4.58439 14.4243
69 1 2.85629 1.02988 14.4286
70 1 2.82023 5.49309 14.4074
71 1 5.336 1.91298 10.0897
72 1 5.3707 1.90239 14.3977
73 1 1.55427 4.55574 16.5613
74 1 1.56488 4.56777 12.2288
75 1 2.83653 5.49458 10.0778
76 1 2.82942 1.01227 10.0958
77 1 6.62485 1.01852 12.2263
78 1 6.61622 1.01755 16.5892
79 1 6.60527 5.53264 16.5777
80 1 1.58354 1.88923 16.5853
81 1 9.14011 1.90503 12.2725
82 1 12.8564 4.59369 10.092
83 1 14.14 5.51199 12.2499
84 1 12.8518 4.60806 14.4167
85 1 10.3859 1.02476 14.4494
86 1 10.3291 5.50541 14.4364
87 1 12.878 1.92644 10.0881
88 1 12.8943 1.93148 14.413
89 1 9.09217 4.6055 16.634
90 1 9.08308 4.57252 12.2566
91 1 10.3646 5.52781 10.1057
92 1 10.3818 1.02117 10.1042
93 1 14.121 1.00885 12.2406
94 1 14.1406 0.99785 16.5672
95 1 14.1463 5.52183 16.5833
96 1 9.11036 1.96004 16.5909
97 1 1.53231 9.0964 12.2423
98 1 5.35079 11.7826 10.1003
99 1 6.64076 12.6987 12.2296
100 1 5.38783 11.7674 14.4137
101 1 2.76542 8.20997 14.4318
102 1 2.88592 12.7153 14.4189
103 1 5.31064 9.09562 10.0939
104 1 5.28678 9.07753 14.4567
105 1 1.60029 11.7422 16.5605
106 1 1.61654 11.7614 12.2629
107 1 2.84848 12.6942 10.065
108 1 2.8107 8.16825 10.1079
109 1 6.5347 8.1861 12.2869
110 1 6.55316 8.20181 16.6266
111 1 6.63661 12.7171 16.5709
112 1 1.53498 9.09859 16.5934
113 1 9.0663 9.07836 12.2709
114 1 12.8801 11.7799 10.0893
115 1 14.1834 12.7 12.2419
116 1 12.9224 11.7937 14.4256
117 1 10.3122 8.1873 14.454
118 1 10.4004 12.7039 14.4264
119 1 12.8285 9.11095 10.134
120 1 12.8391 9.09838 14.4626
121 1 9.13476 11.7879 16.5858
122 1 9.1464 11.7722 12.2694
123 1 10.3857 12.7124 10.0888
124 1 10.3329 8.19056 10.1072
125 1 14.0799 8.1897 12.2877
126 1 14.1038 8.19341 16.6277
127 1 14.1872 12.7175 16.6053
128 1 9.04289 9.11924 16.595
129 2 0.625422 1.57486 3.58731
130 2 1.52704 2.88688 3.56958
131 2 5.81473 4.9508 2.21635
132 2 5.83043 4.93005 0.626569
133 2 6.12636 5.19554 4.40296
134 2 6.57838 6.50828 3.60519
135 2 4.39103 4.95429 5.7812
136 2 5.76211 4.95567 6.56763
137 2 2.36358 1.34612 4.93284
138 2 3.74485 1.35021 5.72852
139 2 2.3504 5.19657 6.54245
140 2 2.7874 6.50993 5.76148
141 2 5.78757 1.59339 2.21027
142 2 5.34927 2.91012 1.43051
143 2 5.35778 2.88886 5.78323
144 2 5.81177 1.5727 6.56799
145 2 2.02734 4.88139 8.72917
146 2 1.56813 3.58682 7.91024
147 2 2.02809 4.92148 4.35415
148 2 2.06254 4.90934 2.76221
149 2 3.79183 5.23169 1.39952
150 2 2.79687 6.48459 1.40422
151 2 3.74143 1.36179 1.46663
152 2 2.35682 1.33117 2.24863
153 2 6.1222 1.29915 4.391
154 2 6.56786 14.3693 3.57807
155 2 6.12958 1.28341 8.75055
156 2 6.59655 14.3273 7.96962
157 2 7.52873 5.18083 7.93495
158 2 6.63286 6.5043 7.92087
159 2 2.02387 1.55964 7.11402
160 2 0.646832 1.56291 7.91486
161 2 9.05539 2.88931 3.6056
162 2 8.16142 1.56133 3.59722
163 2 12.8895 3.60579 1.38699
164 2 13.3409 4.92888 0.616956
165 2 13.6726 5.13387 2.77155
166 2 15.0536 5.15395 3.54734
167 2 13.312 4.93206 4.95747
168 2 11.9296 4.95812 5.74234
169 2 11.2986 1.34884 5.73993
170 2 9.92616 1.35475 4.94055
171 2 10.3293 6.4871 5.78456
172 2 9.87125 5.2031 4.96085
173 2 11.9556 1.59474 1.41648
174 2 13.3261 1.55744 2.22076
175 2 12.9046 2.91394 5.78492
176 2 13.365 1.60042 6.57
177 2 9.54285 4.87998 7.13456
178 2 9.08906 3.56696 7.92423
179 2 8.17672 4.94959 3.58463
180 2 9.55737 4.93349 2.78645
181 2 9.93198 5.19604 0.637074
182 2 11.293 5.18159 1.44299
183 2 9.90033 1.36907 0.624263
184 2 9.87721 1.38288 2.21987
185 2 13.6502 1.30736 4.39785
186 2 14.0796 14.3583 3.60856
187 2 13.6658 1.3141 8.74172
188 2 14.1414 14.359 7.96516
189 2 13.6926 5.15821 7.10965
190 2 15.0775 5.16258 7.89331
191 2 8.17273 1.535 7.89848
192 2 9.55114 1.55928 7.10602
193 2 2.00921 8.78289 4.41805
194 2 1.5627 10.075 3.61624
195 2 4.4295 12.0814 1.39263
196 2 5.33144 10.7666 1.40386
197 2 7.54508 12.3277 3.56105
198 2 6.16003 12.321 2.77971
199 2 5.83438 12.1098 4.96332
200 2 5.81876 12.095 6.5541
201 2 2.33035 8.53898 6.59701
202 2 3.7147 8.53973 5.8036
203 2 2.83956 13.6615 5.72679
204 2 3.76542 12.3654 5.73005
205 2 4.37097 8.75905 1.4267
206 2 5.75482 8.74321 0.636072
207 2 5.32524 10.0817 5.76031
208 2 5.77752 8.78623 4.95655
209 2 2.04924 12.0518 7.10178
210 2 1.57015 10.7504 7.91282
211 2 0.663105 12.0889 3.58714
212 2 2.0379 12.1107 4.37116
213 2 2.39499 12.3605 2.20639
214 2 2.87271 13.6732 1.43579
215 2 2.32018 8.51784 2.21425
216 2 2.32532 8.51224 0.631584
217 2 7.49772 8.51658 3.58784
218 2 6.09707 8.51644 2.80337
219 2 6.11526 8.50409 7.10853
220 2 7.46947 8.52723 7.92937
221 2 6.17167 12.3152 8.71807
222 2 7.56579 12.3075 7.9509
223 2 0.592518 8.74517 7.95327
224 2 1.97587 8.73655 8.74639
225 2 9.56123 8.76148 4.41889
226 2 9.57792 8.71977 2.83365
227 2 11.9533 12.1058 1.41166
228 2 12.8355 10.7773 1.43162
229 2 13.6562 12.3205 2.81181
230 2 13.6744 12.3451 4.38689
231 2 13.3396 12.1301 6.58325
232 2 11.9667 12.1531 5.79506
233 2 11.2492 8.54444 5.77882
234 2 9.8854 8.54869 6.59515
235 2 10.3557 13.6744 5.72381
236 2 9.91415 12.3407 4.9548
237 2 13.3122 8.73436 2.23294
238 2 13.297 8.77057 0.650159
239 2 13.331 8.77933 4.95213
240 2 12.8891 10.0884 5.75026
241 2 9.61366 12.1229 8.71726
242 2 9.58585 12.0888 7.12507
243 2 9.1385 10.7702 3.54597
244 2 9.58956 12.1024 2.78737
245 2 10.3795 13.7112 1.43066
246 2 9.92257 12.4124 0.623583
247 2 11.257 8.51118 1.43913
248 2 10.3513 7.21914 1.41871
249 2 15.0404 8.48902 3.58882
250 2 14.1258 7.17158 3.59078
251 2 14.0834 7.17593 7.90787
252 2 13.6102 8.49214 7.12062
253 2 15.0936 12.3356 7.9533
254 2 13.7065 12.3485 8.74302
255 2 9.08379 10.0767 7.95819
256 2 9.51702 8.76996 8.74926
257 2 2.0244 1.55631 11.4379
258 2 0.636182 1.59426 12.2317
259 2 5.80035 4.93403 10.878
260 2 5.80372 4.94118 9.28488
261 2 6.56797 6.51975 12.262
262 2 6.14009 5.19644 13.0454
263 2 4.40102 4.9023 14.4227
264 2 5.31088 3.59414 14.4216
265 2 2.35752 1.34284 13.6281
266 2 2.34987 1.35365 15.2206
267 2 2.36055 5.16426 15.2181
268 2 2.77278 6.48111 14.4272
269 2 4.38519 1.6107 10.0783
270 2 5.31112 2.89907 10.0665
271 2 4.44284 1.57578 14.428
272 2 5.80857 1.56471 15.2278
273 2 2.05023 4.86242 17.3747
274 2 1.56034 3.56536 16.5892
275 2 2.03062 4.88505 13.0436
276 2 1.58442 3.57483 12.2534
277 2 2.4029 5.13598 10.8986
278 2 3.77119 5.14894 10.0911
279 2 2.34673 1.32415 9.28827
280 2 2.82526 14.3798 10.0758
281 2 6.1165 1.3818 11.4528
282 2 6.15052 1.33832 13.0324
283 2 6.59775 14.3798 16.6159
284 2 6.13809 1.33246 17.4002
285 2 7.52707 5.17511 16.5549
286 2 6.14211 5.16422 15.7697
287 2 0.642386 1.53758 16.6154
288 2 2.0372 1.56418 17.3951
289 2 8.20304 1.59155 12.2562
290 2 9.10549 2.90184 12.2526
291 2 13.3501 4.92343 9.30211
292 2 13.3561 4.93024 10.8839
293 2 15.0683 5.1513 12.2712
294 2 13.6957 5.15345 13.0556
295 2 13.3364 4.93553 15.2168
296 2 12.8773 3.61484 14.461
297 2 10.3613 14.3882 14.4201
298 2 9.91624 1.34887 13.6407
299 2 11.2609 5.15494 14.409
300 2 9.88564 5.1546 13.6235
301 2 12.8724 2.9205 10.0775
302 2 11.9266 1.63431 10.0849
303 2 13.331 1.56408 15.2231
304 2 11.9572 1.59144 14.4262
305 2 9.08628 3.6173 16.6077
306 2 9.55854 4.90575 15.8105
307 2 9.54043 4.92008 11.4422
308 2 8.1603 4.9553 12.2398
309 2 9.94469 5.1619 9.28349
310 2 11.2939 5.18343 10.1165
311 2 9.88061 1.38079 10.8906
312 2 9.8991 1.32418 9.29667
313 2 13.6227 1.38327 11.467
314 2 13.6577 1.32807 13.0587
315 2 13.6622 1.30235 17.3857
316 2 14.1384 14.3681 16.5982
317 2 14.1856 6.51749 16.5983
318 2 15.086 5.19766 16.5986
319 2 8.1808 1.5973 16.5805
320 2 9.5715 1.59962 15.7934
321 2 2.03132 8.79402 11.4372
322 2 1.55816 10.0822 12.2356
323 2 5.79259 12.1509 10.9056
324 2 4.41873 12.1296 10.0895
325 2 6.16441 12.3911 13.0448
326 2 6.63044 13.6939 12.2411
327 2 4.45018 12.096 14.4362
328 2 5.34541 10.7792 14.4208
329 2 3.70929 8.51726 14.426
330 2 2.33892 8.56069 13.6055
331 2 2.87184 13.7068 14.4365
332 2 2.39552 12.3967 15.2263
333 2 5.3257 10.0885 10.0932
334 2 5.76513 8.79549 9.26427
335 2 5.76232 8.74536 13.6567
336 2 5.79043 8.7304 15.2458
337 2 0.676535 12.1047 16.5784
338 2 2.04186 12.1013 17.3727
339 2 0.701077 12.1432 12.2686
340 2 2.06886 12.1221 13.0696
341 2 2.36195 12.3276 9.28711
342 2 2.38773 12.3498 10.8792
343 2 2.85332 7.18115 10.1098
344 2 3.75823 8.49432 10.0999
345 2 7.47291 8.50769 12.2614
346 2 6.10828 8.52535 11.4534
347 2 6.59555 7.2058 16.6043
348 2 7.48863 8.52621 16.6186
349 2 6.16416 12.3498 17.3615
350 2 6.16658 12.3634 15.7693
351 2 1.99937 8.79934 15.7652
352 2 1.56306 10.0893 16.5884
353 2 9.54136 8.72737 13.0714
354 2 9.57137 8.73017 11.491
355 2 12.8446 10.7935 10.1138
356 2 11.9386 12.108 10.0992
357 2 14.147 13.6899 12.2091
358 2 13.7011 12.3707 11.4332
359 2 11.9894 12.1315 14.4147
360 2 13.3623 12.1502 13.6058
361 2 11.252 8.51655 14.4475
362 2 10.3585 7.19791 14.4424
363 2 9.91673 12.3549 15.2298
364 2 9.9215 12.3294 13.6368
365 2 13.2861 8.75642 9.33087
366 2 13.3198 8.74999 10.9172
367 2 13.3161 8.76917 13.6495
368 2 12.8759 10.084 14.4272
369 2 9.11844 10.8047 16.5889
370 2 8.18921 12.0916 16.5756
371 2 8.20787 12.0858 12.2679
372 2 9.10965 10.7823 12.2638
373 2 10.3605 13.7066 10.1304
374 2 9.91599 12.3825 10.8886
375 2 10.3694 7.19993 10.0856
376 2 11.2805 8.49661 10.1263
377 2 15.0159 8.52365 12.2552
378 2 14.1274 7.19472 12.2961
379 2 15.0267 8.55945 16.5934
380 2 13.6405 8.52862 15.8162
381 2 13.6975 12.348 17.3778
382 2 13.707 12.3892 15.7936
383 2 9.52463 8.75594 15.811
384 2 9.5334 8.78307 17.3971
ITEM: TIMESTEP
400
ITEM: NUMBER OF ATOMS
384
ITEM: BOX BOUNDS pp pp pp
4.2227772482272652e-01 1.5223399805177262e+01
3.2938071686443315e-01 1.4377764573135568e+01
5.0289308187168835e-01 1.7570143948128297e+01
ITEM: ATOMS id type x y z
1 1 1.6934 2.02751 3.64223
2 1 5.42339 4.74448 1.56944
3 1 6.55325 5.6766 3.73396
4 1 5.33 4.67774 5.85011
5 1 2.948 1.05691 5.71856
6 1 2.88543 5.53538 5.80174
7 1 5.42124 2.11259 1.5461
8 1 5.39214 2.03624 5.80088
9 1 1.66451 4.61097 7.92194
10 1 1.65956 4.67793 3.63676
11 1 2.94706 5.52299 1.54664
12 1 2.97227 1.12384 1.58302
13 1 6.62945 1.15344 3.67391
14 1 6.62543 1.0856 7.92185
15 1 6.62734 5.60999 7.96606
16 1 1.73745 1.96816 7.86818
17 1 9.07273 2.09638 3.61805
18 1 12.7797 4.66944 1.4873
19 1 13.9888 5.54245 3.62334
20 1 12.7695 4.65917 5.77637
21 1 10.3381 1.11097 5.70254
22 1 10.3066 5.49977 5.79254
23 1 12.7944 2.01354 1.52244
24 1 12.7969 2.03517 5.80742
25 1 9.07357 4.58692 7.90556
26 1 9.00586 4.74406 3.68277
27 1 10.2874 5.46635 1.53095
28 1 10.3184 1.17118 1.51994
29 1 14.0029 1.16173 3.67459
30 1 14.0455 1.17444 7.96238
31 1 14.0251 5.52498 7.89583
32 1 9.0962 1.93695 7.87312
33 1 1.66426 9.03089 3.67645
34 1 5.38051 11.6259 1.53267
35 1 6.68781 12.5603 3.63349
36 1 5.44354 11.7671 5.79129
37 1 2.86097 8.17941 5.84351
38 1 2.94584 12.4904 5.80194
39 1 5.3414 9.01177 1.50286
40 1 5.33035 9.12845 5.84098
41 1 1.67117 11.6036 7.95118
42 1 1.66212 11.6495 3.68607
43 1 2.92687 12.5527 1.57533
44 1 2.85 8.13406 1.51498
45 1 6.56497 8.29616 3.71705
46 1 6.65147 8.25536 7.93153
47 1 6.66283 12.5094 7.95243
48 1 1.63291 8.98881 7.99586
49 1 9.08599 9.02486 3.66917
50 1 12.7478 11.6816 1.60384
51 1 13.9941 12.5869 3.71844
52 1 12.7919 11.6899 5.86149
53 1 10.2914 8.14195 5.82513
54 1 10.3322 12.5521 5.82876
55 1 12.7767 9.05419 1.55583
56 1 12.7677 9.04591 5.83681
57 1 9.16496 11.7022 8.01594
58 1 9.13378 11.6577 3.66643
59 1 10.3054 12.5971 1.51563
60 1 10.3205 8.08317 1.56261
61 1 13.9966 8.17233 3.68365
62 1 13.9267 8.14646 7.98132
63 1 14.0105 12.5906 8.02301
64 1 9.12274 9.09068 7.98446
65 1 1.71334 1.93199 12.1945
66 1 5.38737 4.65733 10.0834
67 1 6.57248 5.61812 12.2178
68 1 5.34474 4.69732 14.3448
69 1 2.94732 1.12736 14.345
70 1 2.8566 5.4595 14.3685
71 1 5.39325 2.01438 10.0611
72 1 5.38981 2.07828 14.3285
73 1 1.65925 4.59694 16.5178
74 1 1.70501 4.56655 12.2072
75 1 2.90622 5.46478 10.0729
76 1 2.92073 1.12254 10.0291
77 1 6.62777 1.17525 12.1989
78 1 6.59959 1.14548 16.4613
79 1 6.63083 5.52108 16.4603
80 1 1.7117 1.96386 16.4982
81 1 9.07386 2.07788 12.203
82 1 12.785 4.78181 10.0879
83 1 14.0535 5.5372 12.2492
84 1 12.7868 4.62421 14.3336
85 1 10.3432 1.12085 14.2952
86 1 10.3247 5.50752 14.3232
87 1 12.7652 2.16292 10.0527
88 1 12.813 2.00103 14.3756
89 1 9.08797 4.61662 16.4266
90 1 9.04143 4.72756 12.2138
91 1 10.2832 5.48376 10.0394
92 1 10.3204 1.1983 10.0789
93 1 13.9842 1.25967 12.1619
94 1 14.0615 1.06016 16.5029
95 1 14.0273 5.57994 16.4415
96 1 9.08859 1.99921 16.4199
97 1 1.7086 9.09536 12.202
98 1 5.39986 11.7136 10.1021
99 1 6.61488 12.5719 12.2303
100 1 5.38838 11.7058 14.3513
101 1 2.84566 8.11516 14.3422
102 1 2.92427 12.5729 14.325
103 1 5.36217 9.07543 10.0487
104 1 5.2964 9.06758 14.336
105 1 1.72568 11.7508 16.4739
106 1 1.69773 11.7272 12.2046
107 1 2.93109 12.534 10.0421
108 1 2.92421 8.10062 10.105
109 1 6.54723 8.25547 12.2309
110 1 6.59024 8.17129 16.4419
111 1 6.61456 12.5628 16.4898
112 1 1.67427 9.13302 16.4477
113 1 9.05262 9.01559 12.2449
114 1 12.7984 11.6612 10.1522
115 1 14.0417 12.6838 12.2154
116 1 12.808 11.7391 14.3104
117 1 10.2974 8.14204 14.371
118 1 10.3138 12.5318 14.3014
119 1 12.7387 9.01977 10.1664
120 1 12.7865 9.11337 14.3352
121 1 9.07565 11.6754 16.436
122 1 9.06193 11.6496 12.2187
123 1 10.3702 12.6221 10.1703
124 1 10.2885 8.09269 10.1424
125 1 14.0434 8.15659 12.2375
126 1 14.0189 8.21739 16.4451
127 1 14.0141 12.5048 16.5245
128 1 9.04701 9.02611 16.5101
129 2 0.736342 1.7041 3.6558
130 2 1.65881 3.03341 3.63824
131 2 5.87615 5.10926 2.38762
132 2 5.93019 5.03882 0.743961
133 2 6.08292 5.30694 4.5401
134 2 6.54286 6.67969 3.76196
135 2 4.38322 5.01981 5.84902
136 2 5.79568 5.05426 6.65345
137 2 2.47922 1.42549 4.9249
138 2 3.88244 1.43715 5.73212
139 2 2.41722 5.21404 6.62858
140 2 2.88541 6.53897 5.8383
141 2 5.89215 1.76708 2.35246
142 2 5.42493 3.12027 1.58863
143 2 5.3724 3.04292 5.85556
144 2 5.83796 1.684 6.6239
145 2 2.12866 4.89918 8.76234
146 2 1.69961 3.61004 7.88251
147 2 2.10527 5.00485 4.46716
148 2 2.20342 4.99903 2.84593
149 2 3.91759 5.2835 1.5379
150 2 2.86169 6.52445 1.52458
151 2 3.89987 1.50969 1.59683
152 2 2.47325 1.4974 2.37884
153 2 6.15848 1.46365 4.50009
154 2 6.64112 14.1966 3.67818
155 2 6.17125 1.40742 8.76262
156 2 6.61997 14.1382 7.94968
157 2 7.55439 5.23336 7.93107
158 2 6.6888 6.61004 7.93491
159 2 2.18805 1.61401 7.03988
160 2 0.781232 1.66459 7.88401
161 2 9.01245 3.10056 3.66072
162 2 8.1263 1.72874 3.64596
163 2 12.8089 3.6656 1.47081
164 2 13.2507 5.03036 0.672926
165 2 13.5362 5.20021 2.8001
166 2 14.9459 5.2154 3.60097
167 2 13.2228 4.98617 4.94581
168 2 11.8161 4.99304 5.75581
169 2 11.2768 1.46958 5.74043
170 2 9.88816 1.51074 4.89967
171 2 10.3029 6.50591 5.84183
172 2 9.79616 5.24596 4.95516
173 2 11.8328 1.68961 1.53023
174 2 13.2311 1.69251 2.35752
175 2 12.7922 3.04898 5.81713
176 2 13.256 1.71997 6.63365
177 2 9.53015 4.9124 7.07154
178 2 9.06899 3.58505 7.87494
179 2 8.07997 5.12665 3.69544
180 2 9.47183 5.02696 2.83875
181 2 9.85887 5.14568 0.68333
182 2 11.23 5.12845 1.53494
183 2 9.85618 1.48591 0.688332
184 2 9.81063 1.5524 2.31124
185 2 13.5456 1.49178 4.50247
186 2 13.9804 14.2109 3.71017
187 2 13.5814 1.53853 8.77844
188 2 14.0115 14.2226 8.01851
189 2 13.5466 5.18693 7.08069
190 2 14.9611 5.16097 7.89089
191 2 8.14188 1.60791 7.86787
192 2 9.55483 1.60389 7.03876
193 2 2.1369 8.72984 4.50749
194 2 1.6547 10.0345 3.70631
195 2 4.4366 11.9451 1.56783
196 2 5.35935 10.6185 1.50699
197 2 7.6249 12.1966 3.61769
198 2 6.1926 12.2018 2.84025
199 2 5.93153 12.0673 4.97619
200 2 5.93301 12.0638 6.62456
201 2 2.394 8.50254 6.67776
202 2 3.79513 8.53745 5.85436
203 2 2.94294 13.4932 5.76691
204 2 3.91575 12.2087 5.77946
205 2 4.40664 8.66742 1.50654
206 2 5.81136 8.66498 0.677327
207 2 5.35885 10.1279 5.83187
208 2 5.79825 8.8451 5.00234
209 2 2.17623 11.9157 7.14223
210 2 1.65967 10.6062 7.95664
211 2 0.728475 12.0036 3.71245
212 2 2.14604 11.9856 4.50806
213 2 2.43275 12.2405 2.40227
214 2 2.97713 13.5515 1.6111
215 2 2.40066 8.50041 2.32662
216 2 2.38975 8.50712 0.705638
217 2 7.52692 8.59307 3.67716
218 2 6.11554 8.5618 2.86797
219 2 6.19703 8.59638 7.11433
220 2 7.59228 8.60877 7.94552
221 2 6.18595 12.1888 8.79235
222 2 7.61703 12.1975 8.00175
223 2 0.690751 8.66131 7.99469
224 2 2.1128 8.62388 8.8073
225 2 9.5195 8.70166 4.51282
226 2 9.59604 8.61774 2.90275
227 2 11.8015 12.014 1.54782
228 2 12.733 10.673 1.59317
229 2 13.4833 12.2421 2.93198
230 2 13.5324 12.2422 4.53327
231 2 13.2423 12.0213 6.69053
232 2 11.8507 12.0381 5.86494
233 2 11.2278 8.49229 5.81823
234 2 9.86538 8.50376 6.65706
235 2 10.3195 13.5566 5.74944
236 2 9.88975 12.1929 5.00707
237 2 13.2748 8.70926 2.35211
238 2 13.2643 8.75837 0.738805
239 2 13.2462 8.72253 5.00885
240 2 12.7899 10.0424 5.83869
241 2 9.64444 12.0886 8.81642
242 2 9.59911 12.0414 7.17219
243 2 9.15394 10.655 3.62666
244 2 9.58594 12.0027 2.84853
245 2 10.2965 13.5941 1.51561
246 2 9.834 12.2797 0.689496
247 2 11.265 8.39954 1.54631
248 2 10.3415 7.0815 1.52575
249 2 14.95 8.4763 3.69708
250 2 13.9991 7.16306 3.66159
251 2 13.9536 7.14857 7.92927
252 2 13.4857 8.48291 7.14504
253 2 14.935 12.219 8.0047
254 2 13.5426 12.2076 8.8316
255 2 9.174 10.0965 8.02413
256 2 9.56443 8.73526 8.80439
257 2 2.16284 1.60215 11.3434
258 2 0.746518 1.66473 12.1657
259 2 5.83486 5.01829 10.9052
260 2 5.85788 5.0352 9.2883
261 2 6.55149 6.61775 12.2407
262 2 6.10374 5.26955 13.0437
263 2 4.38449 4.99669 14.3636
264 2 5.34026 3.69395 14.346
265 2 2.44725 1.42943 13.5201
266 2 2.45951 1.4578 15.153
267 2 2.41339 5.12508 15.2068
268 2 2.8302 6.46298 14.3713
269 2 4.4367 1.70215 10.0346
270 2 5.37494 3.0117 10.0402
271 2 4.45855 1.7102 14.3408
272 2 5.83592 1.73077 15.1572
273 2 2.17121 4.9084 17.32
274 2 1.66296 3.59334 16.5266
275 2 2.1566 4.89129 13.0449
276 2 1.73052 3.56729 12.2168
277 2 2.47246 5.11455 10.9151
278 2 3.85724 5.14835 10.0806
279 2 2.45597 1.43543 9.19184
280 2 2.92162 14.1646 10.0203
281 2 6.12711 1.51481 11.4014
282 2 6.15452 1.51812 13.0113
283 2 6.57873 14.1911 16.5013
284 2 6.1657 1.49253 17.2912
285 2 7.58082 5.1705 16.3951
286 2 6.12706 5.19109 15.6602
287 2 0.7811 1.5882 16.5405
288 2 2.21768 1.64402 17.3091
289 2 8.1188 1.74318 12.2024
290 2 9.0376 3.0723 12.2223
291 2 13.2749 5.07605 9.26092
292 2 13.2815 5.09837 10.903
293 2 14.9705 5.15138 12.2556
294 2 13.5695 5.15695 13.0401
295 2 13.2647 4.98497 15.1372
296 2 12.8109 3.62256 14.3898
297 2 10.3084 14.1745 14.2602
298 2 9.86218 1.48877 13.4895
299 2 11.2555 5.15276 14.3066
300 2 9.84005 5.20164 13.4848
301 2 12.7732 3.1598 10.0462
302 2 11.8016 1.84628 10.0386
303 2 13.2663 1.61558 15.1913
304 2 11.8714 1.65704 14.351
305 2 9.07803 3.60973 16.4003
306 2 9.56619 4.93616 15.5932
307 2 9.49286 5.01366 11.3627
308 2 8.11104 5.09836 12.2207
309 2 9.87426 5.12982 9.19257
310 2 11.2494 5.20004 10.0823
311 2 9.8108 1.57841 10.8507
312 2 9.8499 1.45033 9.22335
313 2 13.4887 1.64102 11.3777
314 2 13.5431 1.55423 13.0145
315 2 13.565 1.38448 17.3139
316 2 14.0321 14.1063 16.5284
317 2 14.0704 6.5929 16.4309
318 2 14.9651 5.22898 16.4942
319 2 8.14475 1.64801 16.4252
320 2 9.56421 1.63967 15.6028
321 2 2.18437 8.76305 11.3982
322 2 1.70923 10.1039 12.1873
323 2 5.82584 12.0502 10.9369
324 2 4.44391 12.0346 10.0738
325 2 6.13026 12.2653 13.0649
326 2 6.6267 13.5639 12.2251
327 2 4.42762 12.0224 14.3534
328 2 5.36155 10.7033 14.3494
329 2 3.78788 8.44322 14.3441
330 2 2.42899 8.49158 13.513