ITEM: TIMESTEP
0
ITEM: NUMBER OF ATOMS
384
ITEM: BOX BOUNDS pp pp pp
-3.1180958401302572e-01 1.5311809584013066e+01
-3.1180958401302572e-01 1.5311809584013066e+01
-3.1180958401302572e-01 1.5311809584013066e+01
ITEM: ATOMS id type x y z
1 1 4.57679 5.50123 13.6944
2 1 14.8875 3.66367 14.1079
3 1 8.20115 10.8513 3.91518
4 1 1.55859 4.11103 4.68534
5 1 14.0046 11.0534 10.4291
6 1 10.1562 -0.0244194 -0.0179537
7 1 13.1461 9.78511 5.92123
8 1 3.48566 13.6848 7.87681
9 1 3.32305 6.30373 3.20589
10 1 5.30735 8.37688 2.36991
11 1 13.7801 6.32188 1.70807
12 1 0.692367 10.1945 14.1186
13 1 15.0627 5.43363 4.6639
14 1 9.98456 5.97612 7.92121
15 1 12.4056 7.19481 3.96576
16 1 9.83562 2.64919 6.79506
17 1 4.60459 4.17249 11.4106
18 1 7.55062 10.3381 11.1669
19 1 8.27543 1.89543 14.4455
20 1 5.83253 14.0038 0.549654
21 1 -0.277952 13.5963 10.2649
22 1 12.6457 2.09652 6.28487
23 1 10.7129 7.40871 14.2399
24 1 2.2119 7.88472 6.40809
25 1 10.4542 9.69036 5.97773
26 1 -0.282536 8.22967 4.81222
27 1 1.6652 11.2607 4.20606
28 1 6.17365 -0.094545 10.725
29 1 12.1932 8.4542 0.381712
30 1 2.29814 6.67565 12.652
31 1 3.74006 5.65533 5.77839
32 1 7.64075 12.3667 7.75101
33 1 2.57949 3.81144 2.08856
34 1 3.31976 13.3432 0.0677147
35 1 -0.0967938 5.37115 7.46928
36 1 11.1426 14.5448 7.59235
37 1 1.26174 14.8074 2.57217
38 1 6.41618 0.335516 13.3898
39 1 0.207637 9.92258 2.18818
40 1 12.6731 13.1901 12.8323
41 1 1.29363 11.9761 7.9846
42 1 13.2286 14.8362 0.439531
43 1 -0.123887 15.1905 5.01064
44 1 8.80795 12.7708 12.0788
45 1 12.4172 6.75949 6.79319
46 1 9.49869 10.6014 8.40823
47 1 10.544 10.9934 13.3575
48 1 8.99001 12.8372 5.44675
49 1 4.04829 1.51716 14.6149
50 1 6.69928 13.1999 13.7041
51 1 4.43379 6.10378 9.26553
52 1 11.4216 -0.0969869 13.0672
53 1 8.10878 14.4288 3.40524
54 1 4.3962 2.37166 3.28729
55 1 12.1316 11.4523 8.45349
56 1 8.7458 10.8517 -0.213292
57 1 1.53862 1.7361 8.48855
58 1 8.69585 5.89847 11.616
59 1 1.22107 9.19196 8.49846
60 1 10.635 10.5731 3.14594
61 1 11.4957 4.51089 15.2148
62 1 10.9209 6.7156 10.446
63 1 4.94638 10.4223 10.3546
64 1 7.94749 8.55464 1.09697
65 1 14.5919 7.80968 8.4877
66 1 5.26248 14.7619 3.62401
67 1 5.62202 2.26942 6.97039
68 1 1.29568 -0.0251437 10.348
69 1 11.6689 12.7598 1.5126
70 1 8.10674 4.34492 9.29769
71 1 15.2574 12.5827 5.71394
72 1 5.13758 11.4238 7.95676
73 1 0.807368 7.59384 14.5622
74 1 1.07308 4.35508 11.6836
75 1 -0.103901 0.899318 12.6958
76 1 12.4336 12.7126 5.99741
77 1 6.5124 0.898083 1.44852
78 1 5.22926 7.74021 7.34722
79 1 4.69818 3.85809 0.25821
80 1 14.6318 1.53081 0.260033
81 1 8.7843 1.26425 2.88569
82 1 10.1715 2.86217 10.2074
83 1 1.97586 4.56417 8.94346
84 1 12.6683 15.2799 4.82665
85 1 10.1623 4.44247 4.67024
86 1 8.26116 6.29332 15.2182
87 1 2.75694 2.33071 12.3211
88 1 10.1168 15.0402 10.6766
89 1 0.0214213 11.8389 0.424274
90 1 9.92368 3.73613 12.9889
91 1 7.93039 3.8304 3.09944
92 1 3.45334 12.7245 2.72154
93 1 13.7442 3.34545 8.32257
94 1 1.06378 7.50528 1.70711
95 1 13.5608 9.51663 12.896
96 1 6.16563 2.34739 9.6158
97 1 6.00658 4.12469 4.96415
98 1 13.0409 2.11594 12.6389
99 1 9.44842 7.22402 5.61094
100 1 3.08802 8.31472 10.412
101 1 4.27645 12.564 12.0172
102 1 0.247817 12.7339 12.6695
103 1 6.92237 8.32243 4.80264
104 1 10.2096 9.4039 11.0142
105 1 8.10819 14.6608 9.11245
106 1 0.724807 14.5893 14.8093
107 1 7.38606 3.87893 0.612739
108 1 13.59 6.17467 11.3541
109 1 6.57455 9.82429 14.0409
110 1 6.72525 7.05567 13.1783
111 1 3.66994 10.3273 5.96103
112 1 1.66543 1.60839 5.77048
113 1 9.05834 13.0173 1.11863
114 1 4.11235 0.213829 6.02437
115 1 10.3679 8.11545 2.36753
116 1 3.8208 14.5044 10.4834
117 1 6.27696 11.8524 2.07137
118 1 3.1417 11.1769 14.1451
119 1 12.971 3.21476 1.56998
120 1 12.4061 13.5738 10.1924
121 1 14.0948 6.56232 13.8874
122 1 11.4172 0.689063 2.37021
123 1 1.65778 1.52802 1.12949
124 1 7.74882 0.714644 6.86752
125 1 13.0368 10.8806 0.0461404
126 1 14.1536 3.59273 10.8941
127 1 12.9937 3.74289 4.44237
128 1 4.93288 10.2326 0.481908
129 2 4.52916 4.87676 12.9369
130 2 4.69703 5.06241 14.547
131 2 14.6886 4.58995 14.3163
132 2 0.0945933 3.63697 13.6264
133 2 7.74221 10.0755 4.24889
134 2 8.99342 10.7228 3.34745
135 2 0.788771 4.72927 4.53377
136 2 1.81069 3.95163 3.77685
137 2 14.4008 11.9252 10.4575
138 2 13.9069 10.7269 11.3647
139 2 10.6725 0.201823 0.765773
140 2 9.47367 0.652849 -0.0632908
141 2 13.5922 9.97565 6.76473
142 2 13.2152 10.5455 5.32572
143 2 3.67781 14.0964 8.7488
144 2 3.53939 14.3835 7.27865
145 2 3.09567 5.45978 2.78243
146 2 3.60518 6.19337 4.09913
147 2 5.08995 9.05489 1.76222
148 2 4.54185 7.79795 2.5309
149 2 13.4381 6.67871 2.59019
150 2 14.7355 6.25337 1.79471
151 2 0.77524 9.18308 14.2443
152 2 0.388115 10.6288 14.9234
153 2 14.1894 4.91997 4.56536
154 2 14.9228 6.4107 4.60147
155 2 10.8762 5.93786 7.61697
156 2 9.58879 6.53361 7.20672
157 2 12.1014 7.06547 4.8105
158 2 11.5829 7.27566 3.48345
159 2 9.70669 3.06202 7.62541
160 2 9.96186 3.35305 6.0781
161 2 3.89127 3.51534 11.556
162 2 5.31618 3.63484 11.0911
163 2 8.36256 9.80951 10.99
164 2 7.91946 11.2623 11.3115
165 2 7.80256 2.56448 14.9346
166 2 7.58248 1.21916 14.1315
167 2 6.10462 13.5421 -0.242407
168 2 4.85977 13.825 0.528199
169 2 14.4101 13.8153 10.1623
170 2 -0.0704958 13.4422 11.1966
171 2 11.7088 2.1063 6.54679
172 2 12.6961 1.18401 5.89058
173 2 10.9921 7.5299 13.3514
174 2 11.2636 8.01166 14.7268
175 2 1.57728 7.89927 5.7134
176 2 1.87051 8.36741 7.16573
177 2 11.4302 9.71213 6.20698
178 2 10.3486 10.1292 5.1128
179 2 14.4149 8.445 5.04536
180 2 0.00164071 8.8165 4.03796
181 2 1.02838 11.8189 4.67407
182 2 2.36173 10.8675 4.79517
183 2 6.32838 0.734699 10.265
184 2 5.21972 -0.301306 10.6492
185 2 12.568 9.37229 0.310345
186 2 12.8634 7.95827 0.824663
187 2 2.56428 7.41349 12.0109
188 2 3.14156 6.4193 13.0935
189 2 3.16723 6.41343 5.9805
190 2 3.10221 4.98312 5.63197
191 2 7.73547 13.1577 8.33842
192 2 8.06104 12.6116 6.87934
193 2 1.75422 3.38105 1.7562
194 2 3.25148 3.1727 2.47226
195 2 3.15037 12.6412 14.9757
196 2 3.16776 12.9566 0.983888
197 2 0.0720948 5.37286 6.52711
198 2 -0.245356 6.34024 7.61737
199 2 11.6512 14.8569 8.35832
200 2 11.802 13.9131 7.23812
201 2 2.07792 14.3411 2.56175
202 2 1.50629 0.044002 2.08403
203 2 6.3968 14.9261 13.4491
204 2 6.20534 0.425411 12.4267
205 2 0.660795 9.1318 1.85703
206 2 0.694078 10.391 2.87312
207 2 12.3708 14.0972 13.0916
208 2 12.1841 12.5232 13.366
209 2 2.09163 12.5603 7.87369
210 2 0.901668 12.2269 8.80367
211 2 13.6981 0.109016 0.335681
212 2 13.4443 14.3386 15.279
213 2 14.5376 15.2076 4.93591
214 2 0.228484 14.9795 4.13145
215 2 9.24837 13.4527 11.622
216 2 9.52013 12.2417 12.5392
217 2 12.875 7.30125 7.44426
218 2 13.1287 6.09272 6.70831
219 2 8.70364 11.2231 8.31889
220 2 9.67729 10.2938 7.51515
221 2 10.4955 10.2933 12.7118
222 2 10.0325 10.7711 14.1408
223 2 9.87115 13.0955 5.5737
224 2 8.95145 12.0108 4.93614
225 2 4.74251 0.928236 14.2575
226 2 3.48888 1.81195 13.8977
227 2 7.56401 13.1017 13.1985
228 2 6.02622 12.6782 13.2435
229 2 3.65548 5.64787 8.88705
230 2 4.53028 5.65688 10.1121
231 2 10.7483 -0.0654962 13.7661
232 2 11.7812 0.808853 13.0779
233 2 8.36482 -0.291862 3.46612
234 2 8.34757 14.0066 4.25098
235 2 5.1094 1.81781 2.95108
236 2 4.6411 2.96006 4.03817
237 2 12.5339 11.0417 9.22128
238 2 11.1841 11.2095 8.49369
239 2 8.60742 10.312 0.576946
240 2 8.69537 11.7883 0.0583599
241 2 1.42282 1.68337 7.50469
242 2 1.60998 2.65673 8.73322
243 2 8.87953 5.11923 12.1645
244 2 8.03029 6.40716 12.1505
245 2 1.95332 8.95172 9.16853
246 2 1.28006 10.1574 8.3047
247 2 11.2632 11.2403 2.79611
248 2 10.7957 9.70539 2.72449
249 2 11.5653 5.40273 -0.288322
250 2 11.1896 4.32648 14.2564
251 2 10.4204 6.65681 9.62663
252 2 10.2607 6.46258 11.0571
253 2 5.87632 10.1769 10.5904
254 2 4.94364 10.8143 9.46912
255 2 7.91802 7.6928 0.604333
256 2 7.17835 8.74025 1.63464
257 2 14.2008 7.92642 9.35992
258 2 -0.267797 8.44072 8.55252
259 2 6.16366 14.3915 3.8125
260 2 4.75946 14.0077 3.26281
261 2 6.35085 1.60272 6.90857
262 2 4.84301 1.75402 6.76165
263 2 1.34137 0.662419 9.62968
264 2 0.817817 14.7755 10.0578
265 2 10.8342 13.0339 1.10914
266 2 12.2496 13.5788 1.43103
267 2 7.99168 4.93257 10.0429
268 2 8.59208 4.87508 8.55834
269 2 -0.0863874 13.5026 5.64494
270 2 0.00602987 12.1735 6.56287
271 2 6.0476 11.6847 7.84187
272 2 4.65027 12.2574 7.8746
273 2 -0.10786 7.21382 14.4417
274 2 1.40859 7.20909 13.8607
275 2 1.10879 5.19843 12.1297
276 2 0.142322 4.18446 11.4107
277 2 0.192301 0.569522 11.8253
278 2 0.262058 0.216297 13.3227
279 2 13.325 12.966 5.76917
280 2 12.474 12.1815 6.79075
281 2 6.96454 1.33987 0.72514
282 2 6.22808 -0.0168944 1.14781
283 2 5.28424 6.95392 7.95734
284 2 5.69738 8.44349 7.79401
285 2 4.59695 2.96295 -0.156096
286 2 4.05776 3.8329 1.0606
287 2 14.2623 2.20361 0.861912
288 2 14.7961 2.02476 15.1013
289 2 7.90736 0.984376 2.41964
290 2 8.42535 2.08554 3.23522
291 2 9.33834 3.30929 9.83257
292 2 10.1754 1.88055 10.1119
293 2 1.75381 4.52695 9.90946
294 2 1.11552 4.78978 8.54253
295 2 12.2645 0.0873025 4.07993
296 2 12.0334 14.6435 5.15054
297 2 9.97133 5.30379 5.02216
298 2 9.51596 4.30903 3.95105
299 2 9.11176 6.41377 14.7882
300 2 7.57568 6.54 14.599
301 2 2.07189 2.92609 11.9449
302 2 2.69894 1.52435 11.845
303 2 10.8501 14.3815 10.4642
304 2 10.5118 -0.206863 11.478
305 2 0.274248 12.7719 0.61942
306 2 0.108425 11.2293 1.22179
307 2 9.70727 2.84376 13.3266
308 2 10.3129 3.49932 12.1129
309 2 7.16744 3.93944 3.6373
310 2 7.68964 3.77425 2.12389
311 2 2.7812 12.2345 3.34142
312 2 4.17512 12.108 2.65722
313 2 13.4252 2.63657 7.76521
314 2 14.4885 3.85196 7.85505
315 2 1.16553 7.50623 0.684607
316 2 1.80702 6.9489 2.01705
317 2 14.4305 9.58843 13.243
318 2 13.0187 10.0336 13.4694
319 2 5.70123 2.57075 8.68482
320 2 6.80813 3.05178 9.52933
321 2 5.35787 4.80808 5.12533
322 2 5.96938 3.53575 5.71789
323 2 13.0854 2.74416 13.3668
324 2 13.871 1.59988 12.7008
325 2 8.54415 7.16809 5.28465
326 2 9.76316 8.11779 5.62097
327 2 3.5805 7.58031 10.0651
328 2 3.76188 9.05652 10.3377
329 2 4.55808 11.8882 11.3243
330 2 3.56374 12.075 12.5347
331 2 0.334551 11.7965 12.6005
332 2 0.24849 12.8839 13.5924
333 2 6.35726 8.22802 5.65351
334 2 6.38531 8.12785 4.02112
335 2 10.214 9.5859 10.0692
336 2 10.6644 8.57403 11.1276
337 2 8.95214 14.8857 9.64428
338 2 7.3584 14.7538 9.70982
339 2 0.591563 15.0693 0.0182509
340 2 1.70203 14.3696 14.7724
341 2 6.4741 3.89198 0.306924
342 2 7.8908 4.74294 0.474307
343 2 13.7745 5.25403 11.174
344 2 12.6407 6.3597 11.1641
345 2 6.61181 10.3071 13.1711
346 2 7.38294 10.2018 14.4287
347 2 5.92965 6.53312 13.3142
348 2 6.65131 8.00804 13.4902
349 2 4.1508 10.9057 6.58172
350 2 3.72612 9.43762 6.27968
351 2 0.960879 1.05271 5.33877
352 2 1.48012 2.49213 5.40543
353 2 8.71011 13.4532 1.93204
354 2 8.99593 13.78 0.520382
355 2 3.28533 0.709593 5.89467
356 2 4.52263 -0.105961 5.1872
357 2 10.8957 8.12501 1.5533
358 2 9.392 8.09909 2.00114
359 2 2.85608 14.8006 10.6062
360 2 3.90293 13.7417 11.0449
361 2 6.48734 12.6937 1.54518
362 2 7.04029 11.6822 2.67807
363 2 2.24681 10.7375 14.3261
364 2 3.668 10.6767 14.8241
365 2 12.3482 3.69431 0.972113
366 2 13.2921 3.83378 2.19605
367 2 12.5073 12.8061 9.60602
368 2 12.5354 13.311 11.1419
369 2 13.9506 6.55755 12.8999
370 2 13.4462 7.1125 14.3857
371 2 11.8334 1.45816 2.05064
372 2 10.4376 0.894116 2.52875
373 2 0.844146 1.54638 0.605455
374 2 2.39804 1.38307 0.478242
375 2 7.77884 0.12269 7.66547
376 2 8.60235 1.23456 6.91956
377 2 12.4122 11.5105 0.551261
378 2 13.9301 11.2794 0.187093
379 2 13.8259 3.47873 9.96028
380 2 13.5184 3.1733 11.5056
381 2 12.9666 3.11167 5.2382
382 2 12.0906 4.05916 4.29522
383 2 5.48443 10.7696 1.07083
384 2 5.47524 10.05 -0.286949
ITEM: TIMESTEP
200
ITEM: NUMBER OF ATOMS
384
ITEM: BOX BOUNDS pp pp pp
-2.8330355226725512e-01 1.5283303552267306e+01
-2.8330355226725512e-01 1.5283303552267306e+01
-2.8330355226725512e-01 1.5283303552267306e+01
ITEM: ATOMS id type x y z
1 1 4.46856 5.84416 13.3477
2 1 14.4424 4.0505 14.069
3 1 7.64948 10.7538 3.88068
4 1 1.47859 3.78013 4.60723
5 1 14.3716 10.2483 10.3854
6 1 10.2518 0.199424 0.204709
7 1 13.5903 9.59885 6.2234
8 1 3.35456 13.9989 8.06865
9 1 2.98974 6.44637 2.87799
10 1 5.47439 7.92633 2.63911
11 1 14.1928 6.13575 2.07148
12 1 0.417657 10.1833 14.0519
13 1 14.8107 5.51564 5.00596
14 1 9.81292 6.30572 8.06693
15 1 12.4626 7.14969 3.95524
16 1 10.3627 2.41948 6.7405
17 1 4.78242 3.90734 11.4754
18 1 7.76219 10.4605 11.0845
19 1 8.56615 1.66253 14.6053
20 1 5.81202 14.331 0.569362
21 1 -0.166808 13.6044 9.9108
22 1 12.8923 1.87389 6.57552
23 1 10.755 7.65528 14.2416
24 1 2.16107 7.71933 6.4954
25 1 10.6354 9.1654 5.80111
26 1 -0.1771 8.20266 4.87533
27 1 1.84742 11.3792 4.9114
28 1 6.27308 0.654352 10.9066
29 1 12.3149 8.10387 0.513002
30 1 2.11644 6.88516 12.4358
31 1 3.50633 5.57586 5.41455
32 1 7.60765 11.8909 7.90075
33 1 3.06008 3.58899 2.30015
34 1 3.0114 13.2875 0.227614
35 1 -0.159099 5.56472 7.63192
36 1 10.7577 14.5178 7.38611
37 1 1.5474 14.9011 2.5526
38 1 6.28963 0.482051 13.5896
39 1 0.14986 10.5297 3.02543
40 1 12.5771 13.3584 12.4204
41 1 0.988517 12.4784 8.0078
42 1 14.1674 14.492 0.860599
43 1 -0.0258042 15.1957 4.56814
44 1 8.43679 13.0424 11.6526
45 1 12.5539 6.45526 7.00153
46 1 10.0481 10.3379 8.22558
47 1 10.5491 11.358 12.9402
48 1 8.75612 12.7514 5.37909
49 1 4.25714 1.81196 14.5371
50 1 6.48379 13.3197 13.537
51 1 4.41967 6.1582 9.44132
52 1 11.1795 0.0354659 13.2051
53 1 7.5635 14.4783 3.38019
54 1 4.46175 2.12776 3.79691
55 1 12.6597 11.0537 8.50042
56 1 8.99932 10.6137 -0.0647251
57 1 1.87945 1.8595 8.57117
58 1 8.12114 5.36954 11.5033
59 1 1.47138 9.28346 8.53473
60 1 10.4231 10.3615 3.32257
61 1 11.4478 4.55568 14.7592
62 1 10.6507 6.86015 11.0098
63 1 5.16533 10.1888 9.97043
64 1 7.85331 7.94224 1.38837
65 1 14.496 7.71251 8.65814
66 1 4.60988 14.7459 3.61485
67 1 5.93475 1.80543 6.72519
68 1 1.35111 0.530745 10.5535
69 1 11.43 12.2837 1.51909
70 1 8.36298 4.22524 9.27073
71 1 15.0105 12.7879 5.87851
72 1 4.83862 11.7072 7.90222
73 1 0.74592 7.48211 14.6029
74 1 0.935084 4.42293 12.1046
75 1 15.0165 0.361801 12.5567
76 1 12.3295 12.2968 6.19916
77 1 6.32394 1.2386 1.66105
78 1 5.44524 8.26176 7.12568
79 1 4.77864 4.08452 0.0753824
80 1 14.8751 1.83753 0.119713
81 1 8.64821 1.62434 2.65295
82 1 10.509 2.69226 10.2642
83 1 1.9118 4.79597 8.79593
84 1 12.8118 15.0463 4.54819
85 1 10.4738 4.66982 5.06006
86 1 8.43341 6.27621 15.0116
87 1 2.74243 2.40623 12.3191
88 1 10.0789 15.1618 10.7038
89 1 14.9092 11.9539 0.980417
90 1 9.61383 3.58137 12.6946
91 1 8.09554 4.23387 3.71408
92 1 3.3805 12.4255 2.87559
93 1 14.1015 3.26744 8.35188
94 1 0.611569 7.9941 1.92643
95 1 13.3826 10.1996 12.7198
96 1 6.20874 2.80524 9.22055
97 1 5.81209 4.02019 5.14552
98 1 12.9877 2.02404 13.0118
99 1 9.08757 7.1063 5.63817
100 1 3.21408 8.55442 10.4508
101 1 4.45938 11.9477 12.2331
102 1 0.405104 12.7107 12.2073
103 1 6.95274 8.45694 4.7975
104 1 10.2564 9.63039 10.8205
105 1 7.9068 14.5821 9.12091
106 1 1.02699 14.5204 14.3215
107 1 7.51846 3.78947 0.55692
108 1 13.4107 6.70915 10.9559
109 1 7.02434 9.75522 13.5027
110 1 6.81369 7.08957 13.2631
111 1 4.24306 10.2238 5.65544
112 1 1.65604 1.01064 5.87842
113 1 9.13133 13.4205 0.929065
114 1 4.25005 -0.0317291 6.10069
115 1 10.2453 7.85717 2.44466
116 1 3.99131 14.6848 10.7797
117 1 5.87378 11.6671 2.07907
118 1 3.12159 11.0223 14.2906
119 1 12.5977 2.91162 1.33731
120 1 12.434 13.8092 9.87156
121 1 13.6147 6.7299 13.8282
122 1 11.352 0.984324 2.50107
123 1 2.08146 1.4366 0.784747
124 1 8.25496 0.418223 6.51145
125 1 12.8165 10.6886 -0.178067
126 1 14.0818 4.02962 10.8759
127 1 12.6628 3.97939 4.07576
128 1 5.21726 9.55703 0.341982
129 2 4.69853 5.20377 12.6588
130 2 4.21835 5.35862 14.1194
131 2 14.1938 5.00207 14.1278
132 2 15.2262 3.99775 13.4401
133 2 7.32464 9.83158 4.27492
134 2 8.56168 10.6474 3.56927
135 2 0.691438 4.34728 4.64127
136 2 1.69244 3.79974 3.62719
137 2 15.1976 10.7376 10.4162
138 2 13.8784 10.3272 11.1923
139 2 10.8484 0.631708 0.865639
140 2 9.59044 0.843881 -0.110531
141 2 13.6702 9.60509 7.1802
142 2 13.4806 10.5133 5.90864
143 2 3.65325 14.5293 8.86326
144 2 3.65537 14.5593 7.29397
145 2 2.63431 5.74829 2.3065
146 2 3.13391 6.08826 3.7324
147 2 5.23425 8.65057 2.00779
148 2 4.75947 7.32769 2.63476
149 2 13.51 6.29222 2.70902
150 2 14.7511 6.90992 2.10841
151 2 0.381257 9.29181 14.4234
152 2 0.149554 10.7609 14.7273
153 2 14.1846 5.02777 4.41499
154 2 15.0787 6.30083 4.53569
155 2 10.7158 6.15298 7.84977
156 2 9.38618 6.73427 7.3408
157 2 12.6224 7.22443 4.93156
158 2 11.5503 7.48839 3.84477
159 2 10.2566 2.83601 7.63133
160 2 10.2419 3.17112 6.0655
161 2 4.00312 3.32432 11.4824
162 2 5.37174 3.67129 10.8092
163 2 8.64809 10.1038 10.8782
164 2 7.9195 11.4193 11.1271
165 2 8.36231 2.40949 15.1476
166 2 7.76332 1.39554 14.0697
167 2 6.51648 14.0506 -0.0128523
168 2 5.00476 14.1712 0.104988
169 2 14.4115 13.6913 9.88582
170 2 0.155029 13.4158 10.7939
171 2 11.8628 1.99489 6.54564
172 2 12.9553 1.08387 6.03403
173 2 10.5358 8.01608 13.3772
174 2 11.2503 8.31549 14.8289
175 2 1.40177 8.00911 5.8978
176 2 2.23189 8.41557 7.22825
177 2 11.599 9.09092 5.88062
178 2 10.4649 9.74797 5.0808
179 2 14.6719 8.73408 5.26732
180 2 0.219551 8.65113 4.08807
181 2 1.06245 11.4905 5.4786
182 2 2.5665 10.8735 5.33838
183 2 6.40487 1.35468 10.251
184 2 5.44911 0.197411 10.8437
185 2 12.7548 8.98916 0.482491
186 2 12.9253 7.49978 0.932175
187 2 2.34957 7.534 11.7621
188 2 2.9609 6.53363 12.7305
189 2 3.21902 6.15857 6.06577
190 2 2.75328 4.91968 5.30751
191 2 7.51571 12.7922 8.29371
192 2 8.06524 12.0445 7.01541
193 2 2.65101 3.07585 1.59607
194 2 3.61188 3.00958 2.80919
195 2 2.81954 12.4924 -0.227375
196 2 3.07012 12.9769 1.11289
197 2 -0.124844 5.77514 6.71104
198 2 15.0892 6.48038 7.97645
199 2 11.486 14.9263 7.86143
200 2 11.266 13.7262 7.05455
201 2 2.21958 14.2146 2.50829
202 2 1.79127 -0.115561 1.78042
203 2 6.27728 15.0363 13.7245
204 2 6.2815 0.54905 12.5793
205 2 0.458562 9.82096 2.45973
206 2 0.81276 10.9057 3.58874
207 2 12.1609 14.0821 12.8879
208 2 12.1153 12.5289 12.7526
209 2 1.88211 12.9196 7.98388
210 2 0.438668 13.0347 8.67604
211 2 14.2206 -0.113369 1.07524
212 2 13.7141 14.455 -0.0203711
213 2 14.6079 15.0828 4.38093
214 2 0.502259 15.084 3.7555
215 2 8.74911 13.6954 11.0472
216 2 9.28991 12.7163 12.0465
217 2 13.1601 6.94955 7.59091
218 2 13.133 5.76427 6.59143
219 2 9.19142 10.8474 8.31121
220 2 10.0437 9.91552 7.34546
221 2 10.4108 10.5795 12.3334
222 2 10.2153 11.2966 13.8219
223 2 9.68168 12.3786 5.57953
224 2 8.33823 11.9794 4.89173
225 2 5.08202 1.3328 14.3107
226 2 3.69562 1.96047 13.7435
227 2 7.29535 13.1516 12.969
228 2 5.74185 13.0444 12.9021
229 2 3.69952 5.48967 9.41606
230 2 4.91849 5.71399 10.1208
231 2 10.7562 0.0485546 14.0594
232 2 11.8593 0.730173 13.3245
233 2 7.85158 -0.176032 3.24638
234 2 7.96013 14.2201 4.23809
235 2 4.62553 1.4609 3.16218
236 2 5.19471 2.61012 4.20964
237 2 13.1972 11.1352 9.32521
238 2 11.7698 10.6631 8.67939
239 2 8.79702 9.80322 0.445111
240 2 8.92705 11.3588 0.542026
241 2 1.73812 1.58293 7.66881
242 2 1.97146 2.83385 8.6052
243 2 8.52204 4.61413 12.0713
244 2 7.414 5.64493 12.0854
245 2 2.05968 9.08252 9.34098
246 2 1.29071 10.2485 8.54482
247 2 10.9222 10.942 2.71106
248 2 10.3795 9.43786 2.82828
249 2 11.5713 5.43529 14.3738
250 2 10.8808 4.06526 14.2021
251 2 10.5117 6.41371 10.0738
252 2 9.81131 6.69397 11.3365
253 2 6.17872 10.1112 10.1999
254 2 5.03091 10.9121 9.28224
255 2 7.83018 7.25551 0.696428
256 2 7.05406 7.96484 1.90282
257 2 14.1917 7.47432 9.57088
258 2 15.1757 8.41569 8.75529
259 2 5.59022 14.6669 3.53676
260 2 4.24329 13.9139 3.24861
261 2 6.78498 1.24587 6.67974
262 2 5.17739 1.14617 6.40653
263 2 1.53669 1.18069 9.74377
264 2 0.72864 -0.102364 10.2659
265 2 10.6996 12.9397 1.5451
266 2 12.2857 12.6902 1.87124
267 2 8.26017 4.76186 10.1358
268 2 8.83369 4.88837 8.68589
269 2 -0.251338 13.5891 5.38962
270 2 0.0132694 12.6834 6.70053
271 2 5.78591 11.8756 7.63272
272 2 4.38502 12.6122 7.93714
273 2 -0.108533 7.03685 14.5671
274 2 1.21486 7.32048 13.7089
275 2 1.10931 5.38576 12.0931
276 2 0.212037 4.27728 11.5148
277 2 0.159639 0.516268 11.8538
278 2 0.0046084 -0.033908 13.2838
279 2 13.3195 12.356 6.12909
280 2 12.2146 11.7957 7.03565
281 2 5.83775 1.87258 1.12695
282 2 6.19665 0.330647 1.345
283 2 5.05601 7.47476 7.53205
284 2 5.71721 8.85205 7.86488
285 2 4.54128 3.17998 15.2196
286 2 4.18587 4.04129 0.850922
287 2 14.1897 2.20902 0.6833
288 2 14.9831 2.54948 15.0194
289 2 7.98001 1.5894 1.9367
290 2 8.4596 2.51644 3.042
291 2 9.66857 3.11258 9.86197
292 2 10.754 1.82513 10.0551
293 2 1.54133 4.73187 9.67044
294 2 1.14768 5.10677 8.26493
295 2 12.3006 -0.239959 3.83165
296 2 12.4041 14.3 5.01348
297 2 10.3768 5.63719 5.27359
298 2 9.64291 4.52388 4.52884
299 2 9.36127 6.49515 14.9839
300 2 7.9757 6.62727 14.2317
301 2 2.11867 3.17209 12.39
302 2 2.25339 1.76585 11.7756
303 2 10.9061 14.7423 10.4667
304 2 10.2802 -0.0902988 11.6005
305 2 14.875 12.9259 0.827978
306 2 -0.207068 11.724 1.85434
307 2 9.16 2.78087 13.077
308 2 9.99674 3.15765 11.905
309 2 7.22467 4.3117 4.05
310 2 8.15179 4.69091 2.89471
311 2 2.8187 12.0869 3.65702
312 2 4.15791 11.8731 2.85147
313 2 13.8246 2.6291 7.75587
314 2 14.3865 4.03304 7.85594
315 2 0.911342 7.65463 1.08738
316 2 1.3039 7.55872 2.49092
317 2 14.2119 9.9741 13.0537
318 2 12.933 10.6426 13.5112
319 2 5.97875 2.68553 8.25747
320 2 6.9522 3.39446 9.04752
321 2 5.00397 4.49356 5.39517
322 2 5.9347 3.46632 5.91758
323 2 13.278 2.64353 13.6928
324 2 13.7661 1.56472 12.7065
325 2 8.23222 7.17983 5.21685
326 2 9.59248 7.93193 5.59348
327 2 3.57359 7.65245 10.269
328 2 3.994 9.10803 10.2262
329 2 4.81135 11.2435 11.6966
330 2 4.07276 11.4599 13.0111
331 2 0.67382 11.823 12.5339
332 2 0.646744 13.3079 12.9717
333 2 6.33604 8.45673 5.49926
334 2 6.46338 8.29953 3.98697
335 2 10.2822 9.90367 9.86375
336 2 10.4688 8.62265 10.8374
337 2 8.82688 14.8225 9.3095
338 2 7.32007 15.1907 9.60402
339 2 0.452774 14.7821 15.0544
340 2 1.86278 14.2329 14.7242
341 2 6.55023 4.1134 0.681408
342 2 7.94851 4.56671 0.186882
343 2 13.5268 5.7638 10.8232
344 2 12.4195 6.83312 10.8294
345 2 7.05739 10.0504 12.5709
346 2 7.68284 10.3395 13.9106
347 2 5.87712 6.71787 13.3875
348 2 6.89961 8.09677 13.1536
349 2 4.40763 10.6844 6.49577
350 2 4.19339 9.29385 5.89876
351 2 0.923357 0.462277 5.50143
352 2 1.54019 1.82114 5.36309
353 2 8.82441 13.6874 1.85771
354 2 9.56716 14.2126 0.527319
355 2 3.34329 0.398265 5.7907
356 2 4.60525 15.1912 5.26947
357 2 10.8755 7.78716 1.68704
358 2 9.34193 7.68644 2.06416
359 2 3.08538 15.1056 10.8258
360 2 3.85324 13.7281 11.0864
361 2 6.15967 12.5543 1.71347
362 2 6.55275 11.4135 2.75212
363 2 2.32735 10.5086 14.1117
364 2 3.69845 10.3758 14.7535
365 2 12.0687 3.30058 0.580432
366 2 12.652 3.57625 2.10644
367 2 12.1055 13.048 9.39824
368 2 12.5686 13.5038 10.784
369 2 13.5856 6.83353 12.849
370 2 12.9764 7.18507 14.3353
371 2 11.6923 1.83259 2.2219
372 2 10.4107 1.22486 2.66096
373 2 1.24349 1.56782 0.315154
374 2 2.78814 1.36442 0.0865972
375 2 8.56117 -0.266086 7.10817
376 2 9.02546 0.985284 6.47325
377 2 12.0454 11.0581 0.244809
378 2 13.5354 11.1765 0.280412
379 2 14.0681 3.64824 9.91049
380 2 13.4829 3.39399 11.2959
381 2 12.7617 3.20386 4.64315
382 2 11.8839 4.47424 4.43417
383 2 5.64253 10.3168 0.784606
384 2 5.74211 9.44967 15.0634
ITEM: TIMESTEP
400
ITEM: NUMBER OF ATOMS
384
ITEM: BOX BOUNDS pp pp pp
-2.5313150284281871e-01 1.5253131502842853e+01
-2.5313150284281871e-01 1.5253131502842853e+01
-2.5313150284281871e-01 1.5253131502842853e+01
ITEM: ATOMS id type x y z
1 1 4.27259 5.75876 13.2232
2 1 14.6268 4.08491 14.2866
3 1 7.28635 10.8028 3.61114
4 1 1.66314 3.46352 4.58357
5 1 14.3856 10.0035 10.5947
6 1 10.1188 -0.0664402 0.111003
7 1 13.9126 9.78925 6.26415
8 1 3.50266 13.8165 8.36503
9 1 2.84706 6.24757 2.61977
10 1 5.45217 7.54323 2.21485
11 1 13.9048 6.42781 2.05953
12 1 0.357081 10.577 14.3352
13 1 -0.207169 5.14991 5.00696
14 1 10.1064 6.42716 8.25594
15 1 12.5819 6.77162 4.45956
16 1 10.5319 2.57313 7.00182
17 1 4.73136 3.84633 11.1547
18 1 7.62808 10.8879 10.8204
19 1 8.56038 1.98259 15.0487
20 1 5.84579 13.7061 0.760038
21 1 -0.1574 13.9808 10.1685
22 1 13.002 1.84429 5.69881
23 1 10.7481 7.37507 13.6483
24 1 2.27445 7.90871 6.16017
25 1 10.922 9.19971 5.86702
26 1 -0.15134 7.78011 4.79743
27 1 2.01266 11.4801 5.21587
28 1 5.99791 0.772966 10.6587
29 1 12.3278 7.64729 0.531799
30 1 1.84069 6.99667 12.7021
31 1 3.42736 5.37584 5.19095
32 1 7.89312 12.1537 7.90663
33 1 3.38401 3.75726 2.08685
34 1 3.18509 13.0952 -0.00212093
35 1 0.212858 5.3854 7.72205
36 1 10.5534 14.4848 7.33796
37 1 1.59572 14.7869 2.24064
38 1 6.27993 0.879247 13.4316
39 1 0.0539659 10.5151 3.49318
40 1 12.4512 13.2904 12.0879
41 1 1.3661 12.3552 8.11646
42 1 14.7637 14.594 0.809005
43 1 -0.0281263 14.8545 4.37836
44 1 8.60783 13.1936 11.9618
45 1 12.5053 6.3603 7.21282
46 1 10.1476 10.3174 8.25096
47 1 10.4423 11.3869 12.8063
48 1 8.4434 12.5864 5.3774
49 1 4.0222 1.84095 14.1832
50 1 6.30329 13.542 13.391
51 1 4.24616 6.27948 9.01148
52 1 11.2149 0.399661 12.9534
53 1 7.6458 14.6492 3.62112
54 1 4.18882 2.17422 3.91838
55 1 12.791 11.2154 8.68028
56 1 9.21369 10.6032 -0.146616
57 1 2.67381 1.8011 8.58994
58 1 8.43474 5.07249 11.7156
59 1 1.2471 9.66493 8.71819
60 1 10.134 10.2189 3.59843
61 1 11.6668 4.33319 14.4324
62 1 9.96791 7.06455 10.9231
63 1 5.28721 10.2227 9.83296
64 1 8.04325 7.7604 1.50919
65 1 14.3839 7.72436 8.41233
66 1 4.67017 14.7785 3.82989
67 1 6.22769 1.48479 6.64169
68 1 1.71824 0.325586 10.3649
69 1 11.1926 12.291 2.15284
70 1 8.92472 4.18753 9.17025
71 1 14.8615 12.6265 5.98071
72 1 5.34678 11.6894 7.51709
73 1 0.414608 8.05004 14.7592
74 1 0.673146 4.74421 11.9189
75 1 14.522 0.36393 12.6589
76 1 12.1164 12.831 5.98406
77 1 5.66867 1.15505 1.30645
78 1 5.40469 8.43576 7.55125
79 1 4.84582 4.26939 -0.0658985
80 1 15.068 1.96479 0.373113
81 1 8.3576 1.7539 2.96502
82 1 10.7032 2.25887 10.4204
83 1 2.24991 4.62809 9.39479
84 1 12.6745 14.937 4.13539
85 1 10.0619 4.59114 5.40359
86 1 8.46987 6.14143 14.5542
87 1 2.3108 2.47061 12.0435
88 1 10.4226 15.0019 10.5831
89 1 14.9749 11.6784 1.14145
90 1 9.82232 3.13852 12.8994
91 1 7.89103 4.24938 3.60272
92 1 2.97577 12.5618 2.89294
93 1 14.4148 3.19824 8.5588
94 1 1.15942 8.22169 1.90748
95 1 13.5705 10.0808 13.1067
96 1 6.34124 3.22268 8.90941
97 1 5.91685 4.0838 5.45515
98 1 12.8965 2.50434 12.6164
99 1 8.90842 7.38071 6.12809
100 1 3.13989 8.36081 10.336
101 1 4.47417 12.0451 11.8875
102 1 1.0996 12.4075 12.2931
103 1 6.62938 8.40761 4.88432
104 1 9.99965 9.67067 10.9019
105 1 7.85467 14.965 8.76971
106 1 1.18363 14.2301 14.2231
107 1 7.46414 4.30128 0.913414
108 1 12.7229 6.85657 11.0333
109 1 7.07643 9.78416 13.9275
110 1 6.62981 7.13509 13.0385
111 1 4.28136 10.0013 5.56426
112 1 1.42784 1.18505 6.01017
113 1 8.5918 13.178 1.28938
114 1 3.64484 -0.140687 6.31262
115 1 10.7348 7.87623 2.59764
116 1 3.90884 14.6276 10.93
117 1 5.24457 11.4852 1.88136
118 1 3.20854 10.845 14.317
119 1 12.65 3.14031 1.35976
120 1 12.7289 13.777 9.54343
121 1 13.846 6.88581 13.5424
122 1 11.0287 1.05694 2.65574
123 1 2.18066 1.57162 0.77213
124 1 8.76612 0.444569 5.85991
125 1 12.2974 10.491 0.193791
126 1 13.7154 4.36618 10.9993
127 1 13.0862 3.87334 4.26775
128 1 4.92804 9.51016 0.234618
129 2 4.6177 5.2559 12.4179
130 2 4.33967 5.07725 14.021
131 2 13.9623 4.84002 14.3451
132 2 -0.199334 4.39563 13.6396
133 2 6.84522 10.0485 4.0824
134 2 8.08747 10.3826 3.34698
135 2 0.899668 4.05477 4.37325
136 2 2.14303 3.36283 3.71864
137 2 -0.214639 10.329 10.628
138 2 13.9658 9.90264 11.5024
139 2 10.614 0.269592 0.885329
140 2 9.3942 0.57746 -0.0164403
141 2 13.6596 10.0785 7.16377
142 2 14.2318 10.5713 5.78637
143 2 3.73652 14.1203 9.2316
144 2 3.53393 14.5233 7.70052
145 2 3.10921 5.27092 2.61573
146 2 2.96116 6.4377 3.57008
147 2 5.36978 8.15876 1.4857
148 2 4.54398 7.19951 2.33888
149 2 13.58 6.57149 2.99535
150 2 14.8415 6.66664 2.05977
151 2 0.360127 9.59076 14.61
152 2 0.264482 11.0787 15.1923
153 2 14.3678 4.73902 4.85344
154 2 15.1475 6.08083 4.6899
155 2 11.0889 6.48179 7.9554
156 2 9.41296 6.74358 7.59948
157 2 12.1734 6.72897 5.32595
158 2 11.8696 7.24665 3.90157
159 2 10.3341 2.53579 7.9413
160 2 10.1562 3.46471 6.64213
161 2 3.8578 3.41748 11.3288
162 2 5.00071 3.74262 10.2657
163 2 8.48952 10.4149 10.6051
164 2 7.90721 11.801 11.0206
165 2 8.24803 2.79894 0.0414101
166 2 7.77468 1.48345 14.815
167 2 6.71753 13.7761 0.402539
168 2 5.15982 13.8563 0.0519409
169 2 14.4442 14.0206 9.81806
170 2 -0.183559 13.3442 10.9241
171 2 12.1116 1.81408 6.17525
172 2 13.2123 0.894687 5.52573
173 2 10.7976 7.1814 12.7142
174 2 11.1313 8.23326 13.9779
175 2 1.3013 7.71668 6.08472
176 2 2.34877 8.05427 7.1782
177 2 11.8816 9.05791 5.91054
178 2 10.5984 9.72722 5.04509
179 2 14.6613 8.30301 5.23832
180 2 0.416972 8.31283 4.22442
181 2 1.64269 11.9122 5.98291
182 2 2.6882 10.8508 5.4905
183 2 5.79779 1.446 9.98015
184 2 5.32732 0.069935 10.8585
185 2 12.6268 8.53513 0.279607
186 2 12.9863 7.22551 1.17824
187 2 2.15119 7.66709 12.0546
188 2 2.70064 6.55652 12.9878
189 2 3.34288 6.15754 5.72439
190 2 2.66955 4.7964 5.18569
191 2 7.87541 12.9998 8.41105
192 2 8.17091 12.4197 6.96569
193 2 2.75593 3.24905 1.51309
194 2 3.8593 3.11013 2.55039
195 2 3.19223 12.1556 15.1858
196 2 2.70027 13.0437 0.841662
197 2 -0.0121473 5.33194 6.76844
198 2 -0.0859898 6.27504 7.8823
199 2 11.1829 14.9662 7.92731
200 2 11.1022 13.8832 6.81643
201 2 2.23121 14.087 2.36242
202 2 1.98672 -0.0876391 1.60033
203 2 6.19911 -0.149795 13.4193
204 2 6.35956 1.05774 12.4944
205 2 0.513889 9.81987 3.03092
206 2 0.661494 10.9791 4.1119
207 2 12.4169 14.1572 12.5636
208 2 12.0146 12.5488 12.5867
209 2 2.26049 12.8743 8.27554
210 2 0.816341 12.5726 8.87072
211 2 0.063619 14.5447 1.41802
212 2 14.6518 0.0468005 0.677807
213 2 14.5249 14.7935 4.0827
214 2 0.600179 14.8057 3.65763
215 2 9.16988 13.7091 11.3443
216 2 9.32572 12.662 12.4202
217 2 13.1616 6.96236 7.63581