ITEM: TIMESTEP
0
ITEM: NUMBER OF ATOMS
384
ITEM: BOX BOUNDS pp pp pp
-3.1180958401302572e-01 1.5311809584013066e+01
-3.1180958401302572e-01 1.5311809584013066e+01
-3.1180958401302572e-01 1.5311809584013066e+01
ITEM: ATOMS id type x y z
1 1 4.57679 5.50123 13.6944
2 1 14.8875 3.66367 14.1079
3 1 8.20115 10.8513 3.91518
4 1 1.55859 4.11103 4.68534
5 1 14.0046 11.0534 10.4291
6 1 10.1562 -0.0244194 -0.0179537
7 1 13.1461 9.78511 5.92123
8 1 3.48566 13.6848 7.87681
9 1 3.32305 6.30373 3.20589
10 1 5.30735 8.37688 2.36991
11 1 13.7801 6.32188 1.70807
12 1 0.692367 10.1945 14.1186
13 1 15.0627 5.43363 4.6639
14 1 9.98456 5.97612 7.92121
15 1 12.4056 7.19481 3.96576
16 1 9.83562 2.64919 6.79506
17 1 4.60459 4.17249 11.4106
18 1 7.55062 10.3381 11.1669
19 1 8.27543 1.89543 14.4455
20 1 5.83253 14.0038 0.549654
21 1 -0.277952 13.5963 10.2649
22 1 12.6457 2.09652 6.28487
23 1 10.7129 7.40871 14.2399
24 1 2.2119 7.88472 6.40809
25 1 10.4542 9.69036 5.97773
26 1 -0.282536 8.22967 4.81222
27 1 1.6652 11.2607 4.20606
28 1 6.17365 -0.094545 10.725
29 1 12.1932 8.4542 0.381712
30 1 2.29814 6.67565 12.652
31 1 3.74006 5.65533 5.77839
32 1 7.64075 12.3667 7.75101
33 1 2.57949 3.81144 2.08856
34 1 3.31976 13.3432 0.0677147
35 1 -0.0967938 5.37115 7.46928
36 1 11.1426 14.5448 7.59235
37 1 1.26174 14.8074 2.57217
38 1 6.41618 0.335516 13.3898
39 1 0.207637 9.92258 2.18818
40 1 12.6731 13.1901 12.8323
41 1 1.29363 11.9761 7.9846
42 1 13.2286 14.8362 0.439531
43 1 -0.123887 15.1905 5.01064
44 1 8.80795 12.7708 12.0788
45 1 12.4172 6.75949 6.79319
46 1 9.49869 10.6014 8.40823
47 1 10.544 10.9934 13.3575
48 1 8.99001 12.8372 5.44675
49 1 4.04829 1.51716 14.6149
50 1 6.69928 13.1999 13.7041
51 1 4.43379 6.10378 9.26553
52 1 11.4216 -0.0969869 13.0672
53 1 8.10878 14.4288 3.40524
54 1 4.3962 2.37166 3.28729
55 1 12.1316 11.4523 8.45349
56 1 8.7458 10.8517 -0.213292
57 1 1.53862 1.7361 8.48855
58 1 8.69585 5.89847 11.616
59 1 1.22107 9.19196 8.49846
60 1 10.635 10.5731 3.14594
61 1 11.4957 4.51089 15.2148
62 1 10.9209 6.7156 10.446
63 1 4.94638 10.4223 10.3546
64 1 7.94749 8.55464 1.09697
65 1 14.5919 7.80968 8.4877
66 1 5.26248 14.7619 3.62401
67 1 5.62202 2.26942 6.97039
68 1 1.29568 -0.0251437 10.348
69 1 11.6689 12.7598 1.5126
70 1 8.10674 4.34492 9.29769
71 1 15.2574 12.5827 5.71394
72 1 5.13758 11.4238 7.95676
73 1 0.807368 7.59384 14.5622
74 1 1.07308 4.35508 11.6836
75 1 -0.103901 0.899318 12.6958
76 1 12.4336 12.7126 5.99741
77 1 6.5124 0.898083 1.44852
78 1 5.22926 7.74021 7.34722
79 1 4.69818 3.85809 0.25821
80 1 14.6318 1.53081 0.260033
81 1 8.7843 1.26425 2.88569
82 1 10.1715 2.86217 10.2074
83 1 1.97586 4.56417 8.94346
84 1 12.6683 15.2799 4.82665
85 1 10.1623 4.44247 4.67024
86 1 8.26116 6.29332 15.2182
87 1 2.75694 2.33071 12.3211
88 1 10.1168 15.0402 10.6766
89 1 0.0214213 11.8389 0.424274
90 1 9.92368 3.73613 12.9889
91 1 7.93039 3.8304 3.09944
92 1 3.45334 12.7245 2.72154
93 1 13.7442 3.34545 8.32257
94 1 1.06378 7.50528 1.70711
95 1 13.5608 9.51663 12.896
96 1 6.16563 2.34739 9.6158
97 1 6.00658 4.12469 4.96415
98 1 13.0409 2.11594 12.6389
99 1 9.44842 7.22402 5.61094
100 1 3.08802 8.31472 10.412
101 1 4.27645 12.564 12.0172
102 1 0.247817 12.7339 12.6695
103 1 6.92237 8.32243 4.80264
104 1 10.2096 9.4039 11.0142
105 1 8.10819 14.6608 9.11245
106 1 0.724807 14.5893 14.8093
107 1 7.38606 3.87893 0.612739
108 1 13.59 6.17467 11.3541
109 1 6.57455 9.82429 14.0409
110 1 6.72525 7.05567 13.1783
111 1 3.66994 10.3273 5.96103
112 1 1.66543 1.60839 5.77048
113 1 9.05834 13.0173 1.11863
114 1 4.11235 0.213829 6.02437
115 1 10.3679 8.11545 2.36753
116 1 3.8208 14.5044 10.4834
117 1 6.27696 11.8524 2.07137
118 1 3.1417 11.1769 14.1451
119 1 12.971 3.21476 1.56998
120 1 12.4061 13.5738 10.1924
121 1 14.0948 6.56232 13.8874
122 1 11.4172 0.689063 2.37021
123 1 1.65778 1.52802 1.12949
124 1 7.74882 0.714644 6.86752
125 1 13.0368 10.8806 0.0461404
126 1 14.1536 3.59273 10.8941
127 1 12.9937 3.74289 4.44237
128 1 4.93288 10.2326 0.481908
129 2 4.52916 4.87676 12.9369
130 2 4.69703 5.06241 14.547
131 2 14.6886 4.58995 14.3163
132 2 0.0945933 3.63697 13.6264
133 2 7.74221 10.0755 4.24889
134 2 8.99342 10.7228 3.34745
135 2 0.788771 4.72927 4.53377
136 2 1.81069 3.95163 3.77685
137 2 14.4008 11.9252 10.4575
138 2 13.9069 10.7269 11.3647
139 2 10.6725 0.201823 0.765773
140 2 9.47367 0.652849 -0.0632908
141 2 13.5922 9.97565 6.76473
142 2 13.2152 10.5455 5.32572
143 2 3.67781 14.0964 8.7488
144 2 3.53939 14.3835 7.27865
145 2 3.09567 5.45978 2.78243
146 2 3.60518 6.19337 4.09913
147 2 5.08995 9.05489 1.76222
148 2 4.54185 7.79795 2.5309
149 2 13.4381 6.67871 2.59019
150 2 14.7355 6.25337 1.79471
151 2 0.77524 9.18308 14.2443
152 2 0.388115 10.6288 14.9234
153 2 14.1894 4.91997 4.56536
154 2 14.9228 6.4107 4.60147
155 2 10.8762 5.93786 7.61697
156 2 9.58879 6.53361 7.20672
157 2 12.1014 7.06547 4.8105
158 2 11.5829 7.27566 3.48345
159 2 9.70669 3.06202 7.62541
160 2 9.96186 3.35305 6.0781
161 2 3.89127 3.51534 11.556
162 2 5.31618 3.63484 11.0911
163 2 8.36256 9.80951 10.99
164 2 7.91946 11.2623 11.3115
165 2 7.80256 2.56448 14.9346
166 2 7.58248 1.21916 14.1315
167 2 6.10462 13.5421 -0.242407
168 2 4.85977 13.825 0.528199
169 2 14.4101 13.8153 10.1623
170 2 -0.0704958 13.4422 11.1966
171 2 11.7088 2.1063 6.54679
172 2 12.6961 1.18401 5.89058
173 2 10.9921 7.5299 13.3514
174 2 11.2636 8.01166 14.7268
175 2 1.57728 7.89927 5.7134
176 2 1.87051 8.36741 7.16573
177 2 11.4302 9.71213 6.20698
178 2 10.3486 10.1292 5.1128
179 2 14.4149 8.445 5.04536
180 2 0.00164071 8.8165 4.03796
181 2 1.02838 11.8189 4.67407
182 2 2.36173 10.8675 4.79517
183 2 6.32838 0.734699 10.265
184 2 5.21972 -0.301306 10.6492
185 2 12.568 9.37229 0.310345
186 2 12.8634 7.95827 0.824663
187 2 2.56428 7.41349 12.0109
188 2 3.14156 6.4193 13.0935
189 2 3.16723 6.41343 5.9805
190 2 3.10221 4.98312 5.63197
191 2 7.73547 13.1577 8.33842
192 2 8.06104 12.6116 6.87934
193 2 1.75422 3.38105 1.7562
194 2 3.25148 3.1727 2.47226
195 2 3.15037 12.6412 14.9757
196 2 3.16776 12.9566 0.983888
197 2 0.0720948 5.37286 6.52711
198 2 -0.245356 6.34024 7.61737
199 2 11.6512 14.8569 8.35832
200 2 11.802 13.9131 7.23812
201 2 2.07792 14.3411 2.56175
202 2 1.50629 0.044002 2.08403
203 2 6.3968 14.9261 13.4491
204 2 6.20534 0.425411 12.4267
205 2 0.660795 9.1318 1.85703
206 2 0.694078 10.391 2.87312
207 2 12.3708 14.0972 13.0916
208 2 12.1841 12.5232 13.366
209 2 2.09163 12.5603 7.87369
210 2 0.901668 12.2269 8.80367
211 2 13.6981 0.109016 0.335681
212 2 13.4443 14.3386 15.279
213 2 14.5376 15.2076 4.93591
214 2 0.228484 14.9795 4.13145
215 2 9.24837 13.4527 11.622
216 2 9.52013 12.2417 12.5392
217 2 12.875 7.30125 7.44426
218 2 13.1287 6.09272 6.70831
219 2 8.70364 11.2231 8.31889
220 2 9.67729 10.2938 7.51515
221 2 10.4955 10.2933 12.7118
222 2 10.0325 10.7711 14.1408
223 2 9.87115 13.0955 5.5737
224 2 8.95145 12.0108 4.93614
225 2 4.74251 0.928236 14.2575
226 2 3.48888 1.81195 13.8977
227 2 7.56401 13.1017 13.1985
228 2 6.02622 12.6782 13.2435
229 2 3.65548 5.64787 8.88705
230 2 4.53028 5.65688 10.1121
231 2 10.7483 -0.0654962 13.7661
232 2 11.7812 0.808853 13.0779
233 2 8.36482 -0.291862 3.46612
234 2 8.34757 14.0066 4.25098
235 2 5.1094 1.81781 2.95108
236 2 4.6411 2.96006 4.03817
237 2 12.5339 11.0417 9.22128
238 2 11.1841 11.2095 8.49369
239 2 8.60742 10.312 0.576946
240 2 8.69537 11.7883 0.0583599
241 2 1.42282 1.68337 7.50469
242 2 1.60998 2.65673 8.73322
243 2 8.87953 5.11923 12.1645
244 2 8.03029 6.40716 12.1505
245 2 1.95332 8.95172 9.16853
246 2 1.28006 10.1574 8.3047
247 2 11.2632 11.2403 2.79611
248 2 10.7957 9.70539 2.72449
249 2 11.5653 5.40273 -0.288322
250 2 11.1896 4.32648 14.2564
251 2 10.4204 6.65681 9.62663
252 2 10.2607 6.46258 11.0571
253 2 5.87632 10.1769 10.5904
254 2 4.94364 10.8143 9.46912
255 2 7.91802 7.6928 0.604333
256 2 7.17835 8.74025 1.63464
257 2 14.2008 7.92642 9.35992
258 2 -0.267797 8.44072 8.55252
259 2 6.16366 14.3915 3.8125
260 2 4.75946 14.0077 3.26281
261 2 6.35085 1.60272 6.90857
262 2 4.84301 1.75402 6.76165
263 2 1.34137 0.662419 9.62968
264 2 0.817817 14.7755 10.0578
265 2 10.8342 13.0339 1.10914
266 2 12.2496 13.5788 1.43103
267 2 7.99168 4.93257 10.0429
268 2 8.59208 4.87508 8.55834
269 2 -0.0863874 13.5026 5.64494
270 2 0.00602987 12.1735 6.56287
271 2 6.0476 11.6847 7.84187
272 2 4.65027 12.2574 7.8746
273 2 -0.10786 7.21382 14.4417
274 2 1.40859 7.20909 13.8607
275 2 1.10879 5.19843 12.1297
276 2 0.142322 4.18446 11.4107
277 2 0.192301 0.569522 11.8253
278 2 0.262058 0.216297 13.3227
279 2 13.325 12.966 5.76917
280 2 12.474 12.1815 6.79075
281 2 6.96454 1.33987 0.72514
282 2 6.22808 -0.0168944 1.14781
283 2 5.28424 6.95392 7.95734
284 2 5.69738 8.44349 7.79401
285 2 4.59695 2.96295 -0.156096
286 2 4.05776 3.8329 1.0606
287 2 14.2623 2.20361 0.861912
288 2 14.7961 2.02476 15.1013
289 2 7.90736 0.984376 2.41964
290 2 8.42535 2.08554 3.23522
291 2 9.33834 3.30929 9.83257
292 2 10.1754 1.88055 10.1119
293 2 1.75381 4.52695 9.90946
294 2 1.11552 4.78978 8.54253
295 2 12.2645 0.0873025 4.07993
296 2 12.0334 14.6435 5.15054
297 2 9.97133 5.30379 5.02216
298 2 9.51596 4.30903 3.95105
299 2 9.11176 6.41377 14.7882
300 2 7.57568 6.54 14.599
301 2 2.07189 2.92609 11.9449
302 2 2.69894 1.52435 11.845
303 2 10.8501 14.3815 10.4642
304 2 10.5118 -0.206863 11.478
305 2 0.274248 12.7719 0.61942
306 2 0.108425 11.2293 1.22179
307 2 9.70727 2.84376 13.3266
308 2 10.3129 3.49932 12.1129
309 2 7.16744 3.93944 3.6373
310 2 7.68964 3.77425 2.12389
311 2 2.7812 12.2345 3.34142
312 2 4.17512 12.108 2.65722
313 2 13.4252 2.63657 7.76521
314 2 14.4885 3.85196 7.85505
315 2 1.16553 7.50623 0.684607
316 2 1.80702 6.9489 2.01705
317 2 14.4305 9.58843 13.243
318 2 13.0187 10.0336 13.4694
319 2 5.70123 2.57075 8.68482
320 2 6.80813 3.05178 9.52933
321 2 5.35787 4.80808 5.12533
322 2 5.96938 3.53575 5.71789
323 2 13.0854 2.74416 13.3668
324 2 13.871 1.59988 12.7008
325 2 8.54415 7.16809 5.28465
326 2 9.76316 8.11779 5.62097
327 2 3.5805 7.58031 10.0651
328 2 3.76188 9.05652 10.3377
329 2 4.55808 11.8882 11.3243
330 2 3.56374 12.075 12.5347
331 2 0.334551 11.7965 12.6005
332 2 0.24849 12.8839 13.5924
333 2 6.35726 8.22802 5.65351
334 2 6.38531 8.12785 4.02112
335 2 10.214 9.5859 10.0692
336 2 10.6644 8.57403 11.1276
337 2 8.95214 14.8857 9.64428
338 2 7.3584 14.7538 9.70982
339 2 0.591563 15.0693 0.0182509
340 2 1.70203 14.3696 14.7724
341 2 6.4741 3.89198 0.306924
342 2 7.8908 4.74294 0.474307
343 2 13.7745 5.25403 11.174
344 2 12.6407 6.3597 11.1641
345 2 6.61181 10.3071 13.1711
346 2 7.38294 10.2018 14.4287
347 2 5.92965 6.53312 13.3142
348 2 6.65131 8.00804 13.4902
349 2 4.1508 10.9057 6.58172
350 2 3.72612 9.43762 6.27968
351 2 0.960879 1.05271 5.33877
352 2 1.48012 2.49213 5.40543
353 2 8.71011 13.4532 1.93204
354 2 8.99593 13.78 0.520382
355 2 3.28533 0.709593 5.89467
356 2 4.52263 -0.105961 5.1872
357 2 10.8957 8.12501 1.5533
358 2 9.392 8.09909 2.00114
359 2 2.85608 14.8006 10.6062
360 2 3.90293 13.7417 11.0449
361 2 6.48734 12.6937 1.54518
362 2 7.04029 11.6822 2.67807
363 2 2.24681 10.7375 14.3261
364 2 3.668 10.6767 14.8241
365 2 12.3482 3.69431 0.972113
366 2 13.2921 3.83378 2.19605
367 2 12.5073 12.8061 9.60602
368 2 12.5354 13.311 11.1419
369 2 13.9506 6.55755 12.8999
370 2 13.4462 7.1125 14.3857
371 2 11.8334 1.45816 2.05064
372 2 10.4376 0.894116 2.52875
373 2 0.844146 1.54638 0.605455
374 2 2.39804 1.38307 0.478242
375 2 7.77884 0.12269 7.66547
376 2 8.60235 1.23456 6.91956
377 2 12.4122 11.5105 0.551261
378 2 13.9301 11.2794 0.187093
379 2 13.8259 3.47873 9.96028
380 2 13.5184 3.1733 11.5056
381 2 12.9666 3.11167 5.2382
382 2 12.0906 4.05916 4.29522
383 2 5.48443 10.7696 1.07083
384 2 5.47524 10.05 -0.286949
ITEM: TIMESTEP
200
ITEM: NUMBER OF ATOMS
384
ITEM: BOX BOUNDS pp pp pp
-2.2989006347002316e-01 1.5229890063470055e+01
-2.0075667969305755e-01 1.5200756679693095e+01
-2.0224793522469486e-01 1.5202247935224751e+01
ITEM: ATOMS id type x y z
1 1 4.54655 5.65439 13.0642
2 1 14.5325 3.84456 14.0416
3 1 7.62722 10.6157 3.76453
4 1 1.65662 3.8454 4.63371
5 1 13.7353 9.99344 10.2722
6 1 9.93324 0.116848 -0.132409
7 1 13.313 9.57086 6.05792
8 1 3.47627 13.4159 7.62731
9 1 3.26773 6.36372 2.74672
10 1 5.47757 8.00042 2.42782
11 1 13.8093 6.49845 1.82213
12 1 0.494517 10.0923 13.6686
13 1 14.8783 5.43202 4.78099
14 1 9.93234 6.00844 7.87938
15 1 12.1702 7.01272 3.96117
16 1 10.0055 2.85423 6.8343
17 1 4.64401 3.89753 11.1293
18 1 7.28224 10.4804 11.2001
19 1 8.29034 2.00212 14.443
20 1 5.76465 13.786 0.457397
21 1 -0.136627 13.1822 9.88907
22 1 12.5208 1.9817 6.03529
23 1 10.7606 7.03192 14.0958
24 1 1.94913 7.8008 6.20787
25 1 10.5205 9.33589 5.7314
26 1 15.1333 8.16705 4.64305
27 1 1.75649 11.335 4.41144
28 1 6.00707 0.450375 10.6306
29 1 12.2534 7.99987 0.304614
30 1 2.08309 6.6366 12.333
31 1 3.62775 5.62661 5.31252
32 1 7.71147 12.0374 7.79949
33 1 2.94852 3.63436 2.14006
34 1 2.88241 13.3588 0.154675
35 1 -0.0933301 5.4294 7.56913
36 1 10.7342 14.6049 7.44665
37 1 1.3534 14.6037 2.55436
38 1 6.08406 0.397208 13.3916
39 1 0.491571 9.9271 2.57885
40 1 12.354 13.0494 12.6372
41 1 0.985246 12.1242 8.02884
42 1 13.8342 14.1358 0.233478
43 1 -0.0982902 15.008 4.62152
44 1 8.55199 12.7207 11.7984
45 1 12.4988 6.27855 6.73866
46 1 9.69617 10.3193 8.14525
47 1 10.4719 10.9304 12.8642
48 1 8.83746 12.3578 5.34518
49 1 3.89026 1.60605 14.3426
50 1 6.54269 13.1597 13.4581
51 1 3.95173 5.94165 9.13544
52 1 11.236 -0.016601 13.0141
53 1 7.62045 14.1829 3.47911
54 1 4.57196 2.1536 3.42115
55 1 12.2164 11.1346 8.43622
56 1 8.82643 10.3385 -0.170372
57 1 1.78634 1.72658 8.40954
58 1 8.48845 5.59138 11.5317
59 1 1.29757 9.08549 8.37063
60 1 10.5884 10.4703 3.32951
61 1 11.6313 4.33891 14.8677
62 1 10.5919 6.86984 10.5301
63 1 4.94815 10.0492 9.92688
64 1 7.88731 8.03903 1.35676
65 1 14.326 7.75215 8.51312
66 1 4.95905 14.714 3.70159
67 1 5.68917 1.88602 6.83833
68 1 1.45998 0.451767 10.4921
69 1 11.3535 12.5033 1.49719
70 1 8.16964 4.26773 9.35158
71 1 15.1866 12.613 5.71202
72 1 5.03951 11.2178 7.60998
73 1 0.822614 7.45675 14.4368
74 1 0.989581 4.3139 11.8015
75 1 -0.135263 0.680999 12.867
76 1 12.5289 12.4253 6.13699
77 1 6.36472 0.957513 1.28437
78 1 5.60199 8.05106 7.22231
79 1 4.59861 4.06082 -0.154376
80 1 14.7043 1.66589 0.192354
81 1 8.70387 1.19675 2.77245
82 1 10.1211 2.61957 10.2077
83 1 1.71812 4.3624 8.8018
84 1 12.6926 15.08 4.09633
85 1 10.2605 4.80465 5.01757
86 1 8.40239 6.17064 14.9267
87 1 2.67116 2.338 12.1382
88 1 9.90703 14.5731 10.6898
89 1 -0.116772 11.2916 0.578587
90 1 9.62585 3.58556 12.7158
91 1 7.94928 3.89631 3.58754
92 1 3.2351 12.6059 2.67456
93 1 13.3962 3.51776 8.09938
94 1 0.917094 7.5258 1.82033
95 1 13.3939 9.80268 12.7717
96 1 6.09271 2.70333 9.27069
97 1 5.81989 3.81782 5.04196
98 1 13.032 1.93688 12.7737
99 1 9.0071 7.10855 5.41087
100 1 3.01835 8.17859 10.2334
101 1 4.54127 12.1087 12.0271
102 1 0.488594 12.6878 12.3565
103 1 6.73725 8.46361 4.74864
104 1 9.7772 9.51624 10.7378
105 1 7.94207 14.5958 8.97553
106 1 0.651568 14.3043 14.4333
107 1 7.43698 3.96298 0.642712
108 1 13.4773 6.70967 11.0288
109 1 6.75036 9.50477 13.5857
110 1 6.87 6.89962 13.0981
111 1 3.53159 9.92008 5.74373
112 1 1.56776 1.28243 5.74227
113 1 8.9894 13.1856 0.956732
114 1 3.85633 0.0888685 6.16565
115 1 10.4012 8.14519 2.25999
116 1 3.87682 14.1444 10.3662
117 1 5.65382 11.5643 2.23587
118 1 3.1844 11.0568 14.1166
119 1 12.4714 2.86875 1.54832
120 1 12.5721 13.4729 10.0678
121 1 13.8907 6.39732 13.7597
122 1 11.2646 0.732629 2.13239
123 1 1.87647 1.30803 1.06773
124 1 8.05551 0.865046 6.59769
125 1 12.7072 10.5842 15.1819
126 1 14.0016 3.85089 10.7612
127 1 12.5634 4.05975 4.078
128 1 4.844 9.66099 0.313323
129 2 4.73373 4.89734 12.3138
130 2 4.41527 5.14393 13.9886
131 2 14.2084 4.82894 14.0559
132 2 15.201 3.81485 13.4008
133 2 7.32029 9.65522 4.21785
134 2 8.61373 10.408 3.38462
135 2 0.927616 4.37849 4.39224
136 2 2.19292 3.77307 3.83411
137 2 14.4329 10.7545 10.3397
138 2 13.5605 9.83236 11.255
139 2 10.5941 0.348994 0.51625
140 2 9.20358 0.659819 14.915
141 2 13.5975 9.45734 7.0886
142 2 13.2353 10.5682 5.88241
143 2 3.67789 14.0255 8.51228
144 2 3.65051 13.9523 6.89987
145 2 3.22687 5.74189 2.26902
146 2 3.68112 6.12418 3.58315
147 2 5.21902 8.57836 1.5602
148 2 4.89503 7.15805 2.43018
149 2 13.2549 6.57741 2.67164
150 2 14.7539 6.86249 2.07833
151 2 0.757509 9.15494 13.7587
152 2 0.353571 10.5187 14.5296
153 2 13.8663 4.9723 4.49252
154 2 14.8541 6.41035 4.50065
155 2 10.8017 5.98102 7.46982
156 2 9.50264 6.5802 7.14218
157 2 12.4298 7.13641 4.93059
158 2 11.4255 7.73277 3.73522
159 2 9.66761 3.1986 7.62296
160 2 9.92051 3.74207 6.4179
161 2 3.98359 3.20648 11.4248
162 2 5.49515 3.30897 10.7375
163 2 8.27062 10.0152 11.0396
164 2 7.84528 11.3519 11.2588
165 2 7.98766 2.82714 15.1023
166 2 7.39754 1.72184 13.8464
167 2 6.04631 13.5049 14.9732
168 2 4.85683 13.7754 0.270736
169 2 14.3903 13.5595 9.77627
170 2 0.183918 13.0751 10.8004
171 2 11.4983 2.2039 6.36248
172 2 12.4758 1.07491 5.55955
173 2 10.8789 7.28054 13.2957
174 2 11.3453 7.67963 14.8322
175 2 1.20029 7.79033 5.60948
176 2 1.60294 8.42328 6.90066
177 2 11.4427 9.12172 5.84031
178 2 10.6235 10.0023 5.0164
179 2 14.5723 8.85001 5.1724
180 2 0.100482 8.62801 3.9253
181 2 0.94498 11.7971 4.96236
182 2 2.52058 10.9444 4.99254
183 2 6.15921 1.16835 9.86385
184 2 5.20648 0.037846 10.4887
185 2 12.3321 8.98123 0.00183277
186 2 12.9498 7.36527 0.826075
187 2 2.18702 7.17252 11.6393
188 2 3.09629 6.28037 12.711
189 2 3.07394 6.35511 5.59873
190 2 2.86591 4.94665 5.1819
191 2 7.50916 12.7657 8.24947
192 2 7.99778 12.3163 6.98586
193 2 2.59541 3.14143 1.44753
194 2 3.57077 3.28636 2.63791
195 2 2.99279 12.4965 14.9444
196 2 2.76151 13.0488 1.04947
197 2 15.1381 5.57129 6.51727
198 2 15.1321 6.30626 7.72951
199 2 11.3565 -0.111572 7.86443
200 2 11.4412 13.9498 7.08796
201 2 2.11985 14.0455 2.64875
202 2 1.6095 -0.0168288 1.94198
203 2 6.22472 14.7243 13.3433
204 2 5.84879 0.468288 12.5071
205 2 1.10543 9.31496 2.21237
206 2 0.870692 10.3525 3.43208
207 2 11.6971 13.8547 12.6722
208 2 11.7247 12.1815 12.8318
209 2 1.78745 12.739 8.06591
210 2 0.382681 12.5099 8.84276
211 2 13.4507 15.0973 0.302402
212 2 13.5643 13.9199 14.6505
213 2 14.3212 -0.121249 4.57378
214 2 0.390817 14.7865 3.63525
215 2 9.06626 13.1197 11.2269
216 2 9.30368 12.3709 12.1606
217 2 13.0041 6.91097 7.38676
218 2 12.7728 5.40945 6.54032
219 2 8.89034 10.9959 8.23513
220 2 9.91022 10.1008 7.22377
221 2 10.3223 10.1923 12.1932
222 2 9.94773 10.5574 13.7437
223 2 9.76806 12.03 5.40574
224 2 8.42938 11.6329 4.88715
225 2 4.63711 1.11474 13.9669
226 2 3.24423 1.93596 13.5429
227 2 7.35896 13.0865 12.9189
228 2 5.75797 12.7105 13.2424
229 2 3.31975 5.33148 8.9849
230 2 4.60087 5.59528 9.78219
231 2 10.8354 0.0509963 14.0164
232 2 11.8799 0.770002 13.04
233 2 8.01723 15.0707 3.37121
234 2 8.15291 13.6542 4.15026
235 2 5.12952 1.59525 2.78424
236 2 5.11048 2.72788 4.02479
237 2 12.6404 10.6618 9.22055
238 2 11.3232 10.7303 8.3466
239 2 8.58122 9.52013 0.343386
240 2 8.6142 11.0084 0.390368
241 2 1.57991 1.59414 7.37191
242 2 1.6391 2.75807 8.56606
243 2 8.92822 4.87735 12.0654
244 2 7.8049 6.04967 12.0754
245 2 1.72157 8.81873 9.12851
246 2 1.38451 10.0595 8.33411
247 2 10.8882 11.2637 2.82751
248 2 10.7724 9.63194 2.76043
249 2 11.0821 5.20734 14.8761
250 2 11.0729 3.94804 13.9623
251 2 10.5116 6.30435 9.70256
252 2 9.74742 6.34959 11.0065
253 2 5.93048 9.82752 10.1476
254 2 5.20921 10.5598 9.08948
255 2 8.06551 7.34055 0.92428
256 2 6.9582 8.01465 1.89067
257 2 13.8994 7.4124 9.3997
258 2 15.1154 8.19958 8.90089
259 2 5.8283 14.5193 3.85767
260 2 4.40406 13.8209 3.50935
261 2 6.5139 1.48 6.59985
262 2 4.97408 1.28662 6.73228
263 2 1.42529 0.894981 9.41716
264 2 0.882784 15.0328 10.2901
265 2 10.5293 12.8081 1.25309
266 2 12.0801 13.103 1.58509
267 2 8.07938 4.87573 10.2862
268 2 8.48188 5.1089 8.64643
269 2 -0.0381167 13.4409 5.46035
270 2 0.238547 12.4258 6.59644
271 2 5.93469 11.4959 7.50843
272 2 4.51124 12.0875 7.74605
273 2 -0.146808 7.1517 14.357
274 2 1.33888 7.21395 13.6979
275 2 1.33096 5.35695 12.0189
276 2 0.0877554 4.25448 11.3386
277 2 0.295337 0.844042 11.9454
278 2 0.553942 0.428133 13.4236
279 2 13.5758 12.6286 6.01069
280 2 12.5015 11.8964 7.08954
281 2 6.11323 1.43817 0.364681
282 2 6.18115 0.0453263 1.18742
283 2 5.26384 7.15215 7.40945
284 2 5.11457 8.70588 7.75762
285 2 4.35736 3.13284 14.6991
286 2 4.07628 4.09192 0.743671
287 2 13.8895 2.08588 0.760895
288 2 14.8718 2.43722 15.0602
289 2 7.90095 1.26513 1.97906
290 2 8.24147 2.08542 3.24791
291 2 9.37391 3.24707 9.77802
292 2 10.474 1.78369 10.1344
293 2 1.22834 4.58873 9.46709
294 2 1.10384 5.01553 8.09199
295 2 12.0974 15.1516 3.23515
296 2 12.4807 14.2285 4.45953
297 2 9.88159 5.85489 4.9986
298 2 9.46264 4.38014 4.27902
299 2 9.02934 6.70377 14.5375
300 2 7.72703 6.15098 14.1613
301 2 1.89521 2.90217 11.8612
302 2 2.50317 1.67565 11.4437
303 2 10.8741 14.1658 10.2504
304 2 10.2049 15.0872 11.5251
305 2 15.1551 12.2117 0.802104
306 2 -0.0595953 10.889 1.46554
307 2 9.16036 2.59757 13.1075
308 2 10.076 3.29316 12.1405
309 2 7.04182 3.96363 4.18388
310 2 7.70892 4.11672 2.61225
311 2 2.66892 12.1285 3.44088
312 2 4.14287 11.9358 2.56968
313 2 13.2443 2.76691 7.50184
314 2 14.2073 4.04987 7.96184
315 2 0.662582 7.4377 0.866056
316 2 1.81453 7.07547 2.12269
317 2 14.4801 9.9137 12.8506
318 2 12.8801 10.3408 13.4024
319 2 5.82733 2.41682 8.34295
320 2 6.98643 3.11649 9.05024
321 2 5.00572 4.57606 5.11891
322 2 5.68252 3.13198 5.77203
323 2 13.1569 2.55507 13.5574
324 2 13.9162 1.30659 12.8209
325 2 7.98984 7.28058 5.13911
326 2 9.44884 7.97128 5.42931
327 2 3.36323 7.32928 9.87943
328 2 3.74224 8.76914 10.1101
329 2 4.79125 11.4915 11.186
330 2 4.13291 11.536 12.7179
331 2 0.1236 11.9112 12.7434
332 2 0.300945 13.1796 13.1061
333 2 6.17734 8.42524 5.6934
334 2 6.19476 8.43542 4.05389
335 2 9.91396 9.72724 9.75373
336 2 10.2482 8.69778 10.7659
337 2 8.69768 14.7785 9.54775
338 2 7.30011 14.909 9.58837
339 2 0.0145384 14.4126 -0.165529
340 2 1.53684 14.1132 14.9599
341 2 6.42724 4.07702 0.600958
342 2 7.7455 4.91234 0.563148
343 2 13.4924 5.67083 10.8665
344 2 12.5464 6.94436 10.8747
345 2 6.86571 9.65852 12.699
346 2 7.39314 9.89756 14.229
347 2 5.79127 6.49441 13.1115
348 2 6.84958 8.07064 13.5232
349 2 3.93132 10.2112 6.57134
350 2 3.02076 9.05332 5.91034
351 2 0.953385 0.762662 5.1987
352 2 1.48591 2.17582 5.36466
353 2 8.72128 13.3638 1.86763
354 2 9.2441 14.0513 0.504105
355 2 2.89094 0.531733 6.00647
356 2 4.24535 -0.141846 5.2661
357 2 10.9225 8.07965 1.39491
358 2 9.5337 8.04578 1.94651
359 2 3.07902 14.7063 10.5874
360 2 3.94324 13.513 11.1778
361 2 5.85501 12.4342 1.5532
362 2 6.47281 11.2853 2.63512
363 2 2.42141 10.5821 13.7688
364 2 3.47918 10.3416 14.7366
365 2 12.0967 3.45966 0.780923
366 2 12.83 3.41886 2.47469
367 2 12.5621 12.5856 9.55427
368 2 12.6243 13.3381 11.0953
369 2 13.8856 6.46162 12.8287
370 2 13.0295 6.55891 14.2197
371 2 11.9033 1.49562 1.92427
372 2 10.3487 1.0532 2.35823
373 2 1.02268 1.424 0.723462
374 2 2.52039 1.22089 0.416655
375 2 8.04046 0.133109 7.36606
376 2 8.78995 1.33926 6.74695
377 2 12.1651 11.0037 0.606239
378 2 13.7022 10.7499 -0.010359
379 2 13.8054 3.60098 9.6504
380 2 13.4442 3.07589 11.0917
381 2 12.5932 3.2297 4.71087
382 2 11.7124 4.33302 4.32909
383 2 5.48068 10.3981 0.798875
384 2 5.33902 9.47066 15.0123
ITEM: TIMESTEP
400
ITEM: NUMBER OF ATOMS
384
ITEM: BOX BOUNDS pp pp pp
-1.7792508045011868e-01 1.5177925080450148e+01
-7.2874872329593998e-02 1.5072874872329617e+01
-1.0143935956222627e-01 1.5101439359562306e+01
ITEM: ATOMS id type x y z
1 1 4.47359 5.50115 12.7961
2 1 14.8266 3.52987 14.0758
3 1 7.21797 10.4765 3.59384
4 1 1.83664 3.49721 4.41061
5 1 13.7623 9.74969 10.0902
6 1 9.36815 -0.0485589 14.8792
7 1 13.3528 9.31663 6.4334
8 1 3.41419 13.02 7.91895
9 1 3.45779 6.01072 2.47497
10 1 5.58164 7.57434 2.03107
11 1 14.0483 6.84022 2.07257
12 1 0.606334 10.0129 13.7203
13 1 -0.0734314 5.3132 4.72529
14 1 9.62253 6.30838 8.14095
15 1 12.2683 6.55515 4.35572
16 1 10.2524 2.81091 6.7798
17 1 4.57078 3.98898 10.6903
18 1 7.03786 10.4357 11.0622
19 1 7.9599 1.98378 14.4393
20 1 5.82559 13.3092 0.526477
21 1 -0.0703463 13.2092 9.7926
22 1 12.1122 1.93769 5.28454
23 1 10.7746 6.44025 13.4952
24 1 1.84903 7.80398 6.2314
25 1 10.6887 9.08676 5.8244
26 1 15.0408 7.98976 4.79047
27 1 1.65356 11.1518 4.4601
28 1 5.95213 0.526835 10.5951
29 1 12.1222 7.68944 0.16261
30 1 1.94368 6.64218 12.0153
31 1 3.40644 5.58635 5.21911
32 1 7.59183 11.9223 7.81395
33 1 3.2788 3.48008 1.72794
34 1 3.19243 12.9948 0.136265
35 1 15.1639 5.01167 7.3707
36 1 10.7939 14.5745 7.38286
37 1 1.18168 14.3471 2.01969
38 1 5.94388 0.741016 13.2118
39 1 0.403956 9.71504 2.73675
40 1 12.3326 13.113 12.7059
41 1 1.16194 11.7807 8.19028
42 1 13.2783 13.6545 -0.0360192
43 1 15.1139 14.8628 4.37299
44 1 8.69054 12.7088 11.8454
45 1 12.038 5.89263 7.13065
46 1 9.85663 10.1828 7.99449
47 1 10.3842 10.7911 12.7473
48 1 8.55998 12.11 5.32591
49 1 3.74966 1.61125 14.1377
50 1 6.35833 13.2944 13.176
51 1 4.11077 6.03974 8.56296
52 1 11.1326 0.328455 12.5118
53 1 7.37147 13.853 3.53707
54 1 4.57402 2.00857 3.47827
55 1 12.1472 11.3453 8.70349
56 1 9.05118 10.1883 -0.0337574
57 1 2.2031 1.50348 8.31708
58 1 8.70319 5.25011 11.58
59 1 1.01674 9.2709 8.45642
60 1 10.0302 10.3939 3.50165
61 1 11.8184 3.91266 14.1351
62 1 10.3329 6.88671 10.5244
63 1 4.79317 9.82482 9.65257
64 1 8.24101 7.84616 1.55906
65 1 14.2709 7.56246 8.00713
66 1 4.79463 14.4923 3.64553
67 1 5.76058 1.61446 6.5485
68 1 1.64334 0.139847 10.4364
69 1 11.4274 12.5438 1.70683
70 1 8.36384 3.93659 9.2474
71 1 -0.161807 12.4998 5.7013
72 1 5.27251 10.9942 7.27183
73 1 0.74742 7.51567 14.2243
74 1 0.603212 4.31643 11.596
75 1 -0.0635307 1.10857 12.4534
76 1 12.3971 12.371 6.10552
77 1 6.34714 0.82179 1.37406
78 1 5.83496 7.93377 7.43757
79 1 4.88712 4.01305 14.857
80 1 14.3925 1.20449 0.41657
81 1 8.43678 1.01851 2.85091
82 1 10.0812 2.2045 10.4146
83 1 1.73585 4.2547 8.94062
84 1 12.3923 14.7621 3.96874
85 1 9.84137 4.64559 5.03614
86 1 8.24904 5.80237 14.8847
87 1 2.62887 2.2809 11.6239
88 1 10.1983 14.6505 10.32
89 1 14.7687 11.1635 0.767312
90 1 9.67127 3.07208 12.7716
91 1 7.80885 3.49402 3.65277
92 1 3.34811 12.413 2.83779
93 1 13.0126 3.71187 7.78793
94 1 1.37446 7.67023 1.59026
95 1 13.2763 9.5078 12.7243
96 1 6.14138 2.84497 8.97663
97 1 5.81264 3.91135 5.31082
98 1 12.8318 2.32827 12.3774
99 1 8.7041 7.10553 5.85396
100 1 2.86926 7.95333 9.88917
101 1 4.35221 11.788 11.7697
102 1 1.10809 12.0454 11.771
103 1 6.41711 8.29041 4.76871
104 1 9.30576 9.37677 10.557
105 1 7.99392 14.4911 8.72845
106 1 0.875637 13.9673 14.1074
107 1 7.06865 3.81274 1.24007
108 1 12.8727 6.72965 10.6572
109 1 6.91527 9.37557 13.4766
110 1 6.82378 6.79663 13.0072
111 1 3.65984 9.67159 5.26695
112 1 1.52283 1.14479 5.76789
113 1 8.73328 12.8224 1.08364
114 1 3.60336 14.8345 6.10667
115 1 10.7037 7.97126 2.73039
116 1 3.85913 14.0866 10.2402
117 1 5.38942 11.1279 1.90565
118 1 3.11009 10.8945 14.0576
119 1 12.4352 2.82734 1.28437
120 1 12.6279 13.4513 10.0586
121 1 13.8247 6.59058 13.3213
122 1 10.8445 0.764725 2.13061
123 1 1.81984 1.53753 0.93252
124 1 8.30655 0.892346 6.12078
125 1 12.3618 10.3006 0.0332076
126 1 13.3897 4.12944 10.6035
127 1 13.0193 4.17021 3.87094
128 1 4.65985 9.38048 0.0846837
129 2 4.48458 5.00754 11.9309
130 2 4.45517 4.96013 13.6636
131 2 14.371 4.23303 14.5307
132 2 0.00395558 3.88031 13.4188
133 2 6.83275 9.55861 4.081
134 2 8.22411 10.3058 3.24152
135 2 0.969333 3.99731 4.31851
136 2 2.08311 3.49705 3.30544
137 2 14.5827 9.85002 9.98123
138 2 13.4379 9.69617 11.1747
139 2 9.62314 0.0852951 0.626395
140 2 8.66747 0.718992 14.6684
141 2 13.3895 8.81199 7.34404
142 2 13.6509 10.2903 6.41023
143 2 3.74428 13.5257 8.81354
144 2 3.46163 13.6886 7.15678
145 2 3.42194 4.85486 2.38389
146 2 3.37148 6.12645 3.5992
147 2 5.26687 8.02541 1.33798
148 2 4.82621 6.78807 2.25718
149 2 13.8377 7.17638 2.87336
150 2 14.9907 6.99744 1.90913
151 2 0.677988 8.91163 13.9976
152 2 0.155636 10.3102 14.5341
153 2 14.4619 4.71253 4.3914
154 2 -0.156434 6.34089 4.5144
155 2 10.5023 5.96866 7.83839
156 2 9.18843 6.62684 7.36794
157 2 11.9395 6.41258 5.2977
158 2 11.516 7.14745 3.8362
159 2 10.2187 3.37381 7.55575
160 2 10.0632 3.5429 6.02741
161 2 4.06381 3.16818 10.8862
162 2 5.16445 3.48912 9.90754
163 2 7.60422 9.93089 10.7935
164 2 7.47472 11.4032 10.971
165 2 7.67293 2.63237 -0.0357194
166 2 7.07284 1.52382 13.9714
167 2 6.37782 13.0414 15.0095
168 2 5.02308 13.2224 0.247809
169 2 14.2416 13.3865 9.83972
170 2 0.0671603 12.7555 10.7526
171 2 11.4097 2.29018 5.90102
172 2 12.1448 1.08232 5.12496
173 2 10.9803 6.30642 12.6629
174 2 11.33 7.10137 13.9432
175 2 1.02107 7.91849 5.78269
176 2 1.72633 8.24155 7.09348
177 2 11.6521 9.42004 5.85833
178 2 10.4028 9.61297 4.9612
179 2 14.4318 8.51479 5.35682
180 2 -0.175623 8.6696 4.04941
181 2 1.17859 11.6347 5.06467
182 2 2.27581 10.4542 4.88405
183 2 5.97625 1.26804 9.86124
184 2 5.17865 14.8664 10.1394
185 2 12.2608 8.69821 0.198734
186 2 12.7872 7.40116 0.898421
187 2 2.35413 7.16033 11.4064
188 2 2.66443 6.12695 12.4074
189 2 2.83108 6.374 5.71338
190 2 2.88483 4.70465 5.13367
191 2 7.55589 12.9165 8.09823
192 2 7.90707 11.9542 6.8395
193 2 2.55778 2.79281 1.52401
194 2 3.89927 2.87365 2.41944
195 2 3.21379 11.9886 14.7013
196 2 2.80972 12.5825 0.951967
197 2 0.0716069 4.66257 6.36425
198 2 15.1292 5.91521 7.60097
199 2 11.2136 15.0103 8.05909
200 2 11.3652 14.5047 6.72402
201 2 1.94122 14.2646 2.43125
202 2 1.33677 0.239698 1.73097
203 2 6.35277 14.9566 13.0507
204 2 5.95575 0.748853 12.1648
205 2 1.06514 8.88017 2.32822
206 2 0.96404 10.2737 3.32586
207 2 11.7888 14.0059 12.4787
208 2 11.5301 12.3189 12.7968
209 2 2.05964 12.2391 8.15424
210 2 0.825875 12.3371 8.92252
211 2 13.618 14.5788 0.0941186
212 2 13.19 13.5612 14.1066
213 2 14.0874 14.7835 4.04008
214 2 0.125272 14.5868 3.40807
215 2 9.00421 13.3827 11.1851
216 2 9.35551 12.1842 12.2296
217 2 12.6662 6.26905 7.91231