ITEM: TIMESTEP
0
ITEM: NUMBER OF ATOMS
384
ITEM: BOX BOUNDS pp pp pp
0.0000000000000000e+00 1.5645677530000000e+01
0.0000000000000000e+00 1.4707145290000000e+01
0.0000000000000000e+00 1.8073037029999998e+01
ITEM: ATOMS id type x y z
1 1 1.38 1.76 3.37
2 1 5.2 4.47 1.11
3 1 6.59 5.39 3.31
4 1 5.28 4.49 5.56
5 1 2.59 0.84 5.67
6 1 2.69 5.43 5.56
7 1 5.2 1.71 1.07
8 1 5.2 1.73 5.58
9 1 1.32 4.61 7.82
10 1 1.3 4.52 3.36
11 1 2.61 5.41 1.1
12 1 2.59 0.82 1.07
13 1 6.54 0.87 3.33
14 1 6.54 0.88 7.83
15 1 6.51 5.4 7.86
16 1 1.35 1.85 7.92
17 1 9.2 1.76 3.37
18 1 13.05 4.55 1.15
19 1 14.35 5.46 3.4
20 1 13.1 4.49 5.66
21 1 10.41 0.84 5.67
22 1 10.51 5.43 5.65
23 1 13.07 1.79 1.07
24 1 13.02 1.73 5.58
25 1 9.15 4.61 7.91
26 1 9.2 4.52 3.4
27 1 10.45 5.49 1.15
28 1 10.49 0.82 1.12
29 1 14.36 0.87 3.33
30 1 14.36 0.88 7.83
31 1 14.36 5.48 7.9
32 1 9.17 1.85 7.92
33 1 1.3 9.11 3.32
34 1 5.3 11.9 1.11
35 1 6.53 12.81 3.4
36 1 5.2 11.84 5.61
37 1 2.59 8.19 5.58
38 1 2.61 12.79 5.61
39 1 5.25 9.14 1.16
40 1 5.2 9.08 5.67
41 1 1.32 11.96 7.91
42 1 1.38 11.87 3.31
43 1 2.69 12.77 1.06
44 1 2.67 8.17 1.12
45 1 6.49 8.14 3.42
46 1 6.49 8.16 7.92
47 1 6.53 12.83 7.81
48 1 1.35 9.21 7.83
49 1 9.09 9.19 3.37
50 1 13.13 11.9 1.11
51 1 14.44 12.82 3.35
52 1 13.1 11.84 5.56
53 1 10.41 8.19 5.58
54 1 10.51 12.79 5.65
55 1 12.99 9.14 1.12
56 1 13.02 9.08 5.67
57 1 9.12 11.89 7.86
58 1 9.15 11.95 3.4
59 1 10.51 12.77 1.15
60 1 10.38 8.25 1.12
61 1 14.29 8.22 3.37
62 1 14.36 8.24 7.92
63 1 14.36 12.83 7.81
64 1 9.12 9.13 7.83
65 1 1.35 1.83 12.45
66 1 5.2 4.47 10.14
67 1 6.59 5.39 12.34
68 1 5.3 4.56 14.65
69 1 2.67 0.84 14.66
70 1 2.69 5.43 14.6
71 1 5.28 1.71 10.15
72 1 5.25 1.81 14.61
73 1 1.32 4.61 16.85
74 1 1.32 4.59 12.35
75 1 2.63 5.49 10.09
76 1 2.64 0.89 10.2
77 1 6.57 0.79 12.41
78 1 6.54 0.88 16.87
79 1 6.53 5.48 16.94
80 1 1.35 1.85 16.86
81 1 9.2 1.76 12.41
82 1 13.02 4.47 10.14
83 1 14.35 5.46 12.34
84 1 13.05 4.57 14.6
85 1 10.46 0.91 14.71
86 1 10.46 5.51 14.69
87 1 13.1 1.71 10.15
88 1 13.07 1.81 14.61
89 1 9.15 4.61 16.94
90 1 9.2 4.52 12.44
91 1 10.45 5.49 10.18
92 1 10.49 0.82 10.16
93 1 14.39 0.79 12.41
94 1 14.36 0.88 16.87
95 1 14.33 5.4 16.89
96 1 9.17 1.85 16.96
97 1 1.3 9.11 12.45
98 1 5.28 11.83 10.1
99 1 6.59 12.74 12.34
100 1 5.3 11.92 14.65
101 1 2.59 8.19 14.71
102 1 2.69 12.79 14.6
103 1 5.2 9.07 10.2
104 1 5.17 9.16 14.66
105 1 1.38 11.89 16.85
106 1 1.38 11.87 12.35
107 1 2.71 12.84 10.14
108 1 2.56 8.25 10.16
109 1 6.49 8.14 12.46
110 1 6.46 8.24 16.91
111 1 6.61 12.83 16.89
112 1 1.3 9.13 16.96
113 1 9.09 9.19 12.41
114 1 13.13 11.9 10.14
115 1 14.41 12.74 12.44
116 1 13.1 11.84 14.69
117 1 10.38 8.27 14.66
118 1 10.53 12.86 14.64
119 1 12.99 9.14 10.15
120 1 13.02 9.08 14.7
121 1 9.23 11.96 16.9
122 1 9.23 11.95 12.39
123 1 10.51 12.77 10.09
124 1 10.38 8.25 10.16
125 1 14.29 8.22 12.41
126 1 14.31 8.16 16.96
127 1 14.44 12.83 16.89
128 1 9.09 9.21 16.91
129 2 0.46 1.48 3.37
130 2 1.33 2.71 3.37
131 2 5.68 4.81 1.86
132 2 5.67 4.81 0.35
133 2 6.13 5.1 4.1
134 2 6.56 6.34 3.34
135 2 4.38 4.84 5.6
136 2 5.7 4.83 6.36
137 2 2.17 1.18 4.88
138 2 3.49 1.17 5.63
139 2 2.23 5.15 6.35
140 2 2.65 6.39 5.59
141 2 5.65 1.43 1.86
142 2 5.23 2.67 1.1
143 2 5.23 2.69 5.61
144 2 5.65 1.45 6.37
145 2 1.78 4.88 8.61
146 2 1.33 3.65 7.85
147 2 1.78 4.85 4.11
148 2 1.78 4.85 2.6
149 2 3.52 5.14 1.1
150 2 2.64 6.37 1.11
151 2 3.49 1.15 1.11
152 2 2.17 1.16 1.87
153 2 6.09 1.14 4.12
154 2 6.53 14.6171 3.37
155 2 6.09 1.15 8.63
156 2 6.53 14.6371 7.86
157 2 7.43 5.14 7.86
158 2 6.53 6.36 7.86
159 2 1.77 1.51 7.13
160 2 0.46 1.51 7.89
161 2 9.16 2.71 3.37
162 2 8.28 1.48 3.37
163 2 13.06 3.59 1.12
164 2 13.5 4.82 0.36
165 2 13.94 5.12 2.61
166 2 15.25 5.14 3.36
167 2 13.52 4.82 4.86
168 2 12.21 4.84 5.62
169 2 11.31 1.17 5.63
170 2 10 1.18 4.88
171 2 10.47 6.39 5.62
172 2 10.05 5.15 4.86
173 2 12.18 1.46 1.11
174 2 13.49 1.45 1.86
175 2 13.05 2.69 5.61
176 2 13.48 1.45 6.37
177 2 9.61 4.88 7.11
178 2 9.16 3.65 7.88
179 2 8.3 4.84 3.36
180 2 9.61 4.85 2.61
181 2 10.04 5.17 0.35
182 2 11.35 5.14 1.11
183 2 10.02 1.16 0.36
184 2 10.02 1.16 1.88
185 2 13.91 1.14 4.12
186 2 14.35 14.6171 3.37
187 2 13.91 1.15 8.63
188 2 14.36 14.6371 7.86
189 2 13.94 5.14 7.11
190 2 15.26 5.16 7.86
191 2 8.28 1.51 7.89
192 2 9.59 1.51 7.13
193 2 1.75 8.83 4.12
194 2 1.33 10.07 3.36
195 2 4.39 12.19 1.1
196 2 5.25 10.94 1.11
197 2 7.43 12.49 3.36
198 2 6.12 12.48 2.61
199 2 5.68 12.17 4.85
200 2 5.68 12.18 6.37
201 2 2.17 8.54 6.37
202 2 3.49 8.52 5.61
203 2 2.64 13.74 5.61
204 2 3.52 12.51 5.61
205 2 4.35 8.81 1.13
206 2 5.66 8.81 0.36
207 2 5.23 10.04 5.63
208 2 5.65 8.8 4.88
209 2 1.78 12.24 7.11
210 2 1.34 11.01 7.88
211 2 0.48 12.2 3.35
212 2 1.79 12.21 4.11
213 2 2.23 12.49 1.85
214 2 2.65 13.72 1.09
215 2 2.19 8.52 1.88
216 2 2.2 8.52 0.36
217 2 7.38 8.49 3.39
218 2 6.07 8.48 2.63
219 2 6.07 8.5 7.13
220 2 7.38 8.51 7.89
221 2 6.12 12.49 8.61
222 2 7.43 12.51 7.85
223 2 0.46 8.86 7.86
224 2 1.77 8.86 8.62
225 2 9.57 8.85 4.13
226 2 9.57 8.84 2.61
227 2 12.21 12.19 1.1
228 2 13.08 10.94 1.11
229 2 13.95 12.48 2.6
230 2 13.95 12.48 4.11
231 2 13.52 12.18 6.36
232 2 12.21 12.19 5.6
233 2 11.31 8.52 5.61
234 2 10 8.54 6.37
235 2 10.47 13.74 5.62
236 2 10.05 12.51 4.86
237 2 13.47 8.8 1.87
238 2 13.47 8.81 0.36
239 2 13.48 8.8 4.88
240 2 13.05 10.04 5.63
241 2 9.6 12.22 8.62
242 2 9.6 12.22 7.11
243 2 9.16 10.99 3.37
244 2 9.61 12.22 2.61
245 2 10.48 13.72 1.13
246 2 10.05 12.49 0.35
247 2 11.3 8.53 1.12
248 2 10.43 7.29 1.11
249 2 15.2 8.51 3.37
250 2 14.34 7.26 3.37
251 2 14.36 7.28 7.88
252 2 13.91 8.52 7.13
253 2 15.26 12.51 7.85
254 2 13.94 12.49 8.61
255 2 9.15 10.09 7.86
256 2 9.57 8.85 8.62
257 2 1.77 1.49 11.66
258 2 0.46 1.49 12.42
259 2 5.68 4.81 10.9
260 2 5.67 4.81 9.38
261 2 6.56 6.34 12.38
262 2 6.13 5.1 13.14
263 2 4.39 4.85 14.65
264 2 5.25 3.61 14.65
265 2 2.19 1.18 13.9
266 2 2.19 1.18 15.42
267 2 2.23 5.15 15.39
268 2 2.65 6.39 14.63
269 2 4.36 1.44 10.15
270 2 5.24 2.67 10.15
271 2 4.35 1.48 14.65
272 2 5.66 1.47 15.41
273 2 1.78 4.88 17.65
274 2 1.33 3.65 16.89
275 2 1.78 4.87 13.14
276 2 1.34 3.64 12.39
277 2 2.21 5.16 10.89
278 2 3.52 5.14 10.13
279 2 2.19 1.18 9.41
280 2 2.63 14.6471 10.16
281 2 6.09 1.13 11.65
282 2 6.09 1.14 13.17
283 2 6.53 14.6371 16.9
284 2 6.09 1.15 17.67
285 2 7.43 5.16 16.9
286 2 6.12 5.14 16.15
287 2 0.46 1.51 16.89
288 2 1.77 1.51 17.66
289 2 8.28 1.48 12.41
290 2 9.16 2.71 12.4
291 2 13.5 4.81 9.38
292 2 13.5 4.81 10.9
293 2 15.25 5.14 12.39
294 2 13.94 5.13 13.14
295 2 13.51 4.84 15.39
296 2 13.06 3.61 14.64
297 2 10.46 14.6671 14.67
298 2 10.01 1.19 13.91
299 2 11.35 5.16 14.65
300 2 10.04 5.17 13.9
301 2 13.07 2.67 10.15
302 2 12.18 1.44 10.15
303 2 13.49 1.47 15.41
304 2 12.18 1.48 14.65
305 2 9.16 3.65 16.91
306 2 9.61 4.88 16.15
307 2 9.61 4.85 11.64
308 2 8.3 4.84 12.4
309 2 10.04 5.17 9.39
310 2 11.35 5.14 10.15
311 2 10.02 1.16 10.91
312 2 10.02 1.16 9.4
313 2 13.92 1.13 11.65
314 2 13.92 1.14 13.17
315 2 13.91 1.15 17.67
316 2 14.36 14.6371 16.9
317 2 14.36 6.36 16.9
318 2 15.25 5.14 16.9
319 2 8.28 1.51 16.93
320 2 9.59 1.51 16.17
321 2 1.75 8.83 11.66
322 2 1.33 10.07 12.41
323 2 5.7 12.16 10.89
324 2 4.38 12.17 10.13
325 2 6.13 12.46 13.14
326 2 6.56 13.7 12.38
327 2 4.39 12.21 14.65
328 2 5.25 10.96 14.65
329 2 3.49 8.52 14.67
330 2 2.17 8.53 13.91
331 2 2.65 13.74 14.63
332 2 2.23 12.5 15.39
333 2 5.22 10.02 10.17
334 2 5.65 8.79 9.4
335 2 5.65 8.81 13.9
336 2 5.65 8.82 15.42
337 2 0.48 12.22 16.89
338 2 1.79 12.22 17.65
339 2 0.48 12.2 12.39
340 2 1.79 12.21 13.14
341 2 2.23 12.52 9.38
342 2 2.23 12.51 10.89
343 2 2.61 7.29 10.15
344 2 3.48 8.53 10.16
345 2 7.38 8.49 12.42
346 2 6.07 8.48 11.66
347 2 6.52 7.28 16.91
348 2 7.37 8.53 16.91
349 2 6.14 12.5 17.65
350 2 6.13 12.5 16.14
351 2 1.75 8.84 16.16
352 2 1.33 10.09 16.92
353 2 9.57 8.85 13.16
354 2 9.57 8.84 11.65
355 2 13.08 10.94 10.15
356 2 12.21 12.19 10.14
357 2 14.37 13.7 12.41
358 2 13.95 12.46 11.65
359 2 12.21 12.19 14.66
360 2 13.52 12.17 13.9
361 2 11.3 8.55 14.66
362 2 10.43 7.31 14.66
363 2 10.05 12.53 15.4
364 2 10.05 12.52 13.89
365 2 13.47 8.81 9.39
366 2 13.47 8.8 10.91
367 2 13.48 8.8 13.91
368 2 13.05 10.04 14.67
369 2 9.19 11.01 16.9
370 2 8.31 12.24 16.9
371 2 8.31 12.22 12.39
372 2 9.19 10.99 12.4
373 2 10.48 13.72 10.13
374 2 10.05 12.49 10.88
375 2 10.43 7.29 10.15
376 2 11.3 8.53 10.16
377 2 15.2 8.51 12.41
378 2 14.34 7.26 12.4
379 2 15.2 8.51 16.93
380 2 13.89 8.5 16.17
381 2 13.96 12.5 17.65
382 2 13.95 12.5 16.14
383 2 9.57 8.86 16.15
384 2 9.56 8.86 17.67
ITEM: TIMESTEP
200
ITEM: NUMBER OF ATOMS
384
ITEM: BOX BOUNDS pp pp pp
2.4136573719089505e-01 1.5404311792809107e+01
2.3499875751976607e-01 1.4472146532480238e+01
3.2049711169290340e-01 1.7752539918307097e+01
ITEM: ATOMS id type x y z
1 1 1.40711 1.74399 3.30069
2 1 5.06104 4.40001 1.01186
3 1 6.37815 5.23069 3.26249
4 1 4.97808 4.3719 5.39907
5 1 2.60023 0.718908 5.44289
6 1 2.46909 5.32108 5.45438
7 1 5.0492 1.77131 1.02116
8 1 5.13552 1.61844 5.45587
9 1 1.25957 4.3606 7.59586
10 1 1.3319 4.44297 3.24622
11 1 2.44833 5.27866 1.15487
12 1 2.54668 0.851091 1.12041
13 1 6.27089 0.91524 3.25728
14 1 6.30438 0.737052 7.68186
15 1 6.29527 5.30754 7.62122
16 1 1.48033 1.69475 7.58471
17 1 8.80783 1.81224 3.22523
18 1 12.6474 4.36191 1.02975
19 1 13.9969 5.2486 3.18528
20 1 12.7564 4.3832 5.44151
21 1 10.1436 0.844595 5.38372
22 1 10.1592 5.22094 5.53023
23 1 12.7649 1.73393 1.05705
24 1 12.6738 1.72123 5.42338
25 1 8.84565 4.2259 7.53702
26 1 8.90473 4.43644 3.22768
27 1 10.1566 5.3306 1.01093
28 1 10.1647 0.944841 1.05983
29 1 13.9179 0.781611 3.14877
30 1 13.9829 0.864875 7.62548
31 1 13.9606 5.29747 7.63151
32 1 8.82454 1.60109 7.52527
33 1 1.37719 8.74967 3.25855
34 1 5.08489 11.4707 1.14916
35 1 6.27277 12.4154 3.25467
36 1 4.95913 11.5289 5.36236
37 1 2.53843 8.08021 5.43649
38 1 2.40416 12.3121 5.35862
39 1 5.13136 8.88528 1.15773
40 1 5.10086 8.93537 5.39766
41 1 1.34116 11.5527 7.53257
42 1 1.31029 11.4417 3.14495
43 1 2.55224 12.3884 0.974885
44 1 2.59559 7.86478 1.06881
45 1 6.3295 7.93194 3.29071
46 1 6.26646 7.95184 7.49378
47 1 6.30329 12.3313 7.57676
48 1 1.31571 8.90768 7.63568
49 1 8.85761 8.8229 3.3189
50 1 12.7063 11.4247 1.01002
51 1 13.896 12.3274 3.16584
52 1 12.7084 11.5873 5.41547
53 1 10.0631 7.92472 5.41899
54 1 10.1761 12.3839 5.36467
55 1 12.6842 8.84739 1.19846
56 1 12.5442 8.78329 5.31818
57 1 8.76582 11.4604 7.49664
58 1 8.89429 11.4364 3.20256
59 1 10.1005 12.417 1.11236
60 1 10.0973 7.9464 1.09243
61 1 13.9149 7.97308 3.26997
62 1 13.8289 7.95084 7.47371
63 1 14.0414 12.4844 7.6703
64 1 8.81538 8.80499 7.58157
65 1 1.31439 1.66549 12.0476
66 1 5.05362 4.37946 9.75727
67 1 6.35674 5.39372 11.8883
68 1 5.10502 4.34465 14.031
69 1 2.60564 0.869183 14.2263
70 1 2.65996 5.36764 14.1839
71 1 5.19665 1.73008 9.8435
72 1 5.08117 1.65357 14.2099
73 1 1.30926 4.43011 16.383
74 1 1.3622 4.41348 12.0174
75 1 2.5743 5.21233 9.74663
76 1 2.57345 0.937227 9.80716
77 1 6.32051 0.812009 11.9921
78 1 6.34307 0.826938 16.3734
79 1 6.34033 5.34632 16.3735
80 1 1.24961 1.71333 16.4083
81 1 8.83354 1.71054 11.9634
82 1 12.7212 4.41128 9.73885
83 1 13.9738 5.25929 11.9575
84 1 12.6657 4.41776 13.9882
85 1 10.1336 0.842448 14.1708
86 1 10.0871 5.19661 14.0666
87 1 12.6592 1.74061 9.74165
88 1 12.6138 1.75426 14.2039
89 1 8.84838 4.43655 16.338
90 1 8.81289 4.388 11.8638
91 1 10.2095 5.31982 9.72313
92 1 10.1285 0.876954 9.7749
93 1 13.9185 0.80994 11.9631
94 1 13.9993 0.865297 16.3599
95 1 13.9266 5.28307 16.2645
96 1 8.86742 1.77026 16.3428
97 1 1.2141 8.8478 11.9156
98 1 5.09456 11.6015 9.73712
99 1 6.35117 12.4317 11.9514
100 1 5.13774 11.4999 14.1187
101 1 2.54857 7.95634 14.1791
102 1 2.60362 12.4649 14.0247
103 1 4.9928 8.93471 9.69589
104 1 5.07922 8.84172 14.265
105 1 1.41263 11.4547 16.2055
106 1 1.30589 11.5068 11.8894
107 1 2.49366 12.4719 9.82398
108 1 2.53907 7.88989 9.75492
109 1 6.19141 8.0387 11.8691
110 1 6.3441 7.95713 16.4133
111 1 6.31596 12.3935 16.3156
112 1 1.17501 8.79902 16.2978
113 1 8.80911 8.71632 12.038
114 1 12.6593 11.5445 9.79537
115 1 13.8826 12.4109 11.9777
116 1 12.7992 11.4934 14.1725
117 1 10.0925 7.90752 14.2597
118 1 10.218 12.4067 14.209
119 1 12.6373 8.82335 9.75184
120 1 12.5916 8.86635 14.1639
121 1 8.86815 11.5846 16.3099
122 1 8.9371 11.4995 11.9668
123 1 10.0942 12.4437 9.74586
124 1 10.1305 7.92173 9.77234
125 1 13.8052 7.9052 12.008
126 1 13.9067 7.90632 16.3504
127 1 14.0785 12.4254 16.3231
128 1 8.83419 8.86684 16.3705
129 2 0.412582 1.46141 3.43824
130 2 1.36903 2.84639 3.24866
131 2 5.40336 4.83192 1.73936
132 2 5.4434 4.61272 17.5854
133 2 6.10799 4.79837 4.08661
134 2 6.55648 6.3288 3.39095
135 2 3.87509 4.64141 5.40939
136 2 5.44319 4.61758 6.23874
137 2 1.90986 1.0799 4.78393
138 2 3.6304 1.09008 5.41038
139 2 1.97307 5.15405 6.2423
140 2 2.73179 6.19319 5.30093
141 2 5.42236 1.38437 1.8944
142 2 4.89593 2.8046 1.0256
143 2 4.89493 2.56767 5.69757
144 2 5.58951 1.42015 6.34725
145 2 1.89281 4.57943 8.44064
146 2 1.38555 3.37519 7.44909
147 2 1.66846 4.78314 4.17356
148 2 1.83292 4.79252 2.51456
149 2 3.45775 4.95928 0.98033
150 2 2.56026 6.26719 1.10909
151 2 3.62469 1.22741 1.0973
152 2 2.21265 1.14685 2.01571
153 2 5.95348 1.16191 4.16266
154 2 6.25762 14.1539 3.21094
155 2 5.64031 1.03904 8.47771
156 2 6.21053 13.9953 7.55187
157 2 7.49265 4.84372 7.42319
158 2 6.48547 6.39614 7.54007
159 2 1.88535 1.35227 6.75287
160 2 0.451369 1.21339 7.72041
161 2 8.76635 2.81837 3.16434
162 2 7.83644 1.608 3.23868
163 2 12.5029 3.35596 0.919632
164 2 13.0664 4.5565 17.5382
165 2 13.4583 4.91918 2.42008
166 2 14.9224 5.1336 3.32966
167 2 13.171 4.76111 4.65646
168 2 11.7056 4.87585 5.26399
169 2 11.0172 1.19742 5.31898
170 2 9.54718 1.29932 4.63981
171 2 9.94698 6.3862 5.31908
172 2 9.69264 4.8275 4.72568
173 2 11.7455 1.54885 1.14269
174 2 13.3133 1.24715 1.68086
175 2 12.737 2.73212 5.31268
176 2 13.2089 1.57611 6.16479
177 2 9.27859 4.52889 6.72589
178 2 8.63136 3.28843 7.48846
179 2 8.00218 4.85573 3.10635
180 2 9.17565 4.87606 2.30739
181 2 9.5245 5.02723 17.6959
182 2 11.0622 5.0252 0.977601
183 2 9.61846 1.45039 17.6787
184 2 9.68011 1.50488 1.7949
185 2 13.3663 1.06198 3.95562
186 2 13.9445 13.9861 3.34742
187 2 13.6923 1.20285 8.50216
188 2 13.8361 14.1072 7.74586
189 2 13.6425 4.89513 6.92049
190 2 15.0237 5.01335 7.69778
191 2 7.79219 1.2521 7.38722
192 2 9.45215 1.25879 6.63021
193 2 1.65773 8.50717 4.14855
194 2 1.12375 9.8345 3.11159
195 2 3.97432 11.7409 0.996926
196 2 5.09916 10.4529 1.00125
197 2 7.21437 12.026 3.13322
198 2 5.75401 12.0419 2.52951
199 2 5.71547 11.8039 4.66663
200 2 5.40409 11.7988 6.23191
201 2 1.96073 8.44266 6.04142
202 2 3.50513 8.32054 5.49228
203 2 2.51454 13.304 5.23308
204 2 3.34082 12.1216 5.4465
205 2 4.22058 8.34868 1.21229
206 2 5.77707 8.51938 17.708
207 2 5.21281 9.81984 5.35228
208 2 5.56165 8.67637 4.53372
209 2 1.69104 11.6998 6.53936
210 2 1.21827 10.5538 7.53515
211 2 0.292963 11.807 3.32715
212 2 1.50778 11.7914 3.91527
213 2 1.85408 12.0293 1.72549
214 2 2.67832 13.42 1.16998
215 2 2.09884 8.26411 1.84695
216 2 1.83063 8.22826 0.401465
217 2 7.27125 8.33914 3.24428
218 2 5.85113 8.29975 2.36831
219 2 5.82065 8.15381 6.7364
220 2 7.12414 8.46343 7.36019
221 2 5.76514 12.0843 8.41383
222 2 7.22801 12.1082 7.49374
223 2 0.436776 8.56988 7.3723
224 2 1.72252 8.50634 8.45207
225 2 9.41752 8.47837 4.10666
226 2 9.32339 8.56558 2.41236
227 2 11.8294 11.8266 0.896125
228 2 12.425 10.3723 1.15244
229 2 13.2488 11.9496 2.47214
230 2 13.4708 12.0792 4.06582
231 2 13.3666 12.0753 6.13311
232 2 11.7086 11.9103 5.57212
233 2 10.9531 8.49374 5.41335
234 2 9.69653 8.33492 6.29979
235 2 10.1655 13.4544 5.34931
236 2 9.62174 12.0947 4.50839
237 2 13.2156 8.59225 1.99342
238 2 13.2595 8.4754 17.7399
239 2 12.9803 8.63403 4.51074
240 2 12.4299 9.88895 5.3906
241 2 9.39243 11.789 8.07608
242 2 9.27155 11.8509 6.60483
243 2 8.81545 10.5036 3.15372
244 2 9.28354 11.6713 2.29121
245 2 10.0439 13.3639 1.2307
246 2 9.74466 12.2195 17.6515
247 2 11.0355 8.32475 1.28192
248 2 10.2618 6.87885 0.980044
249 2 14.8698 8.27248 3.25674
250 2 13.9548 7.09202 3.02597
251 2 13.6563 7.02272 7.36986
252 2 13.4064 8.44718 6.7098
253 2 15.1385 12.2713 7.60661
254 2 13.7695 12.1258 8.40261
255 2 8.76092 9.86624 7.63264
256 2 9.24121 8.44154 8.34628
257 2 1.80707 1.42527 11.2064
258 2 0.283873 1.34533 11.9905
259 2 5.5745 4.68926 10.4771
260 2 5.49436 5.07566 8.97758
261 2 6.02327 6.30898 11.9953
262 2 5.66807 4.89385 12.8452
263 2 4.14198 4.52087 14.0632
264 2 5.08195 3.43701 14.1824
265 2 2.04354 1.34452 13.5769
266 2 2.14004 1.04649 15.1284
267 2 2.30442 5.01591 15.0176
268 2 2.53868 6.30519 14.229
269 2 4.28918 1.48911 9.83361
270 2 5.28182 2.67994 9.69345
271 2 4.12711 1.38877 14.1114
272 2 5.65228 1.35488 15.0842
273 2 1.65359 4.74195 17.3818
274 2 1.26572 3.45382 16.3083
275 2 1.98632 4.63726 12.8514
276 2 1.5669 3.19124 12.1473
277 2 2.12635 4.91669 10.5215
278 2 3.60337 5.03498 9.82867
279 2 2.05716 1.34056 8.99237
280 2 2.49766 14.1293 9.86411
281 2 5.74764 1.08073 11.1178
282 2 5.98261 0.990426 12.9423
283 2 6.46304 13.8459 16.4589
284 2 5.94779 1.22195 17.1813
285 2 7.36071 4.91306 16.248
286 2 5.87351 4.88743 15.4236
287 2 15.3989 1.3903 16.4232
288 2 1.89238 1.58298 17.1828
289 2 7.89406 1.25537 12.0025
290 2 8.70062 2.68136 11.9386
291 2 13.3196 4.71011 9.07929
292 2 13.1086 4.88952 10.6035
293 2 15.0239 5.23702 11.9066
294 2 13.8098 4.80201 12.7811
295 2 13.1524 4.59626 14.805
296 2 12.8082 3.33407 14.0325
297 2 10.2457 14.1577 14.1873
298 2 9.74044 1.17574 13.251
299 2 10.991 5.1132 14.1176
300 2 9.7055 4.99176 13.1076
301 2 12.6422 2.84091 9.80727
302 2 11.954 1.26554 9.85196
303 2 13.1675 1.54186 14.9613
304 2 11.5442 1.47999 14.0959
305 2 8.86602 3.44512 16.5663
306 2 9.10376 4.61848 15.5603
307 2 9.09155 4.77546 11.077
308 2 7.8103 4.6438 12.0684
309 2 10.0093 5.01345 8.76647
310 2 11.0963 5.00693 9.74957
311 2 9.70347 1.1651 10.562
312 2 9.73577 1.29807 8.96717
313 2 13.2504 1.00492 11.0385
314 2 13.3355 1.20018 12.6255
315 2 13.6052 1.13743 17.1812
316 2 13.9865 14.0292 16.3823
317 2 13.7618 6.30299 16.3782
318 2 14.9287 4.8941 16.2672
319 2 7.97957 1.40816 16.1229
320 2 9.45378 1.34973 15.603
321 2 1.52187 8.58456 10.925
322 2 1.14335 9.97569 11.8784
323 2 5.50822 11.9834 10.649
324 2 4.03142 11.9809 9.84258
325 2 5.85399 12.1839 12.7651
326 2 6.55744 13.3272 12.0436
327 2 4.1161 11.9502 14.1275
328 2 4.81794 10.5691 14.1741
329 2 3.52512 8.43785 14.1838
330 2 2.00314 8.36301 13.4677
331 2 2.649 13.5187 14.0094
332 2 2.04896 11.9342 14.8751
333 2 4.91812 9.8747 9.7259
334 2 5.59404 8.67826 9.01389
335 2 5.72345 8.49443 13.3456
336 2 5.75969 8.63273 15.0379
337 2 0.546935 11.6117 16.2416
338 2 1.78851 12.038 17.0815
339 2 0.306056 11.6802 12.0544
340 2 1.82742 11.7443 12.7148
341 2 2.09794 12.0099 8.95217
342 2 2.25871 11.9328 10.6085
343 2 2.45885 6.89308 9.93412
344 2 3.43399 8.23005 9.71013
345 2 7.22317 8.38131 11.8083
346 2 5.67907 8.59434 11.2677
347 2 6.2765 6.81226 16.3424
348 2 7.17078 8.30437 16.602
349 2 6.17761 11.9445 17.225
350 2 5.80197 11.8167 15.5626
351 2 1.86145 8.71636 15.56
352 2 1.44531 9.77582 16.3043
353 2 9.23665 8.33008 12.8825
354 2 9.34951 8.35898 11.2062
355 2 12.3958 10.7263 10.1914
356 2 11.6153 11.7702 9.48032
357 2 13.9215 13.3581 12.1176
358 2 13.5341 12.2152 11.11
359 2 11.8579 11.7757 14.165
360 2 13.283 11.8275 13.3983
361 2 11.0188 8.36097 14.179
362 2 10.1745 6.89022 14.3612
363 2 9.82459 12.0979 14.9646
364 2 9.95521 11.876 13.4699
365 2 12.949 8.61756 8.90461
366 2 13.2454 8.47976 10.4498
367 2 13.0834 8.55703 13.2986
368 2 12.5064 9.85855 14.2318
369 2 8.81582 10.4001 16.2457
370 2 8.05671 11.762 16.3592
371 2 8.01691 11.62 11.8854
372 2 8.77693 10.5517 11.8754
373 2 10.1011 13.3541 9.87784
374 2 9.5726 12.1198 10.4282
375 2 10.2977 6.97015 9.7063
376 2 10.962 8.36219 9.65147
377 2 14.7006 8.24825 11.7145
378 2 13.9113 6.99826 12.0512
379 2 14.7529 8.29416 16.3218
380 2 13.3183 8.28251 15.5951
381 2 13.5678 11.8942 17.1809
382 2 13.5318 12.0171 15.6647
383 2 9.28751 8.47993 15.5463
384 2 9.47763 8.3898 17.0972
ITEM: TIMESTEP
400
ITEM: NUMBER OF ATOMS
384
ITEM: BOX BOUNDS pp pp pp
4.6654049692420863e-01 1.5179137033075790e+01
4.3348055518130035e-01 1.4273664734818711e+01
6.2313843955395143e-01 1.7449898590446061e+01
ITEM: ATOMS id type x y z
1 1 1.40216 1.6481 3.30087
2 1 5.03954 4.44873 1.09748
3 1 6.22719 5.13586 3.24058
4 1 4.84752 4.16658 5.1141
5 1 2.52886 0.489524 5.30312
6 1 2.51972 5.19235 5.27805
7 1 4.89278 1.7219 1.26489
8 1 4.95519 1.62124 5.27368
9 1 1.28698 4.33498 7.40075
10 1 1.25812 4.31687 3.13797
11 1 2.45548 5.07113 1.03985
12 1 2.47265 1.00079 1.03615
13 1 6.21139 0.838616 3.22988
14 1 6.23806 0.767128 7.32577
15 1 6.1012 5.08999 7.16296
16 1 1.44629 1.67992 7.33378
17 1 8.53427 1.75529 3.1524
18 1 12.2012 4.1633 0.774963
19 1 13.4172 4.97609 2.97287
20 1 12.2186 4.1106 5.07663
21 1 9.86532 0.694963 5.12835
22 1 9.83403 5.11167 5.26946
23 1 12.2389 1.53688 0.983569
24 1 12.4128 1.54896 5.2834
25 1 8.59558 4.12529 7.32128
26 1 8.67248 4.40911 3.08335
27 1 9.8779 5.25867 0.859323
28 1 9.76601 0.897763 1.09474
29 1 13.6811 0.958655 3.16398
30 1 13.6544 0.826298 7.50177
31 1 13.509 5.18926 7.10693
32 1 8.77879 1.50119 7.30339
33 1 1.31831 8.46173 3.11651
34 1 4.97677 11.1247 1.03079
35 1 6.23743 12.0474 3.02527
36 1 4.89692 11.2943 5.16575
37 1 2.48114 7.74453 5.31798
38 1 2.34859 11.8867 5.25652
39 1 4.78114 8.56033 1.0877
40 1 4.92961 8.58057 5.14395
41 1 1.22522 11.0559 7.38017
42 1 1.24747 11.168 3.06136
43 1 2.54732 12.1975 1.05085
44 1 2.39378 7.62904 0.98503
45 1 6.22993 7.73006 3.0027
46 1 6.04734 7.80182 7.29959
47 1 6.03044 12.0223 7.34576
48 1 1.17499 8.47951 7.35265
49 1 8.72354 8.49699 3.13742
50 1 12.2759 11.21 1.10473
51 1 13.483 12.168 3.0698
52 1 12.2743 11.3329 5.22907
53 1 9.91848 7.64706 5.30101
54 1 9.84954 12.0641 5.2549
55 1 12.371 8.59724 1.0584
56 1 12.2506 8.74583 5.11044
57 1 8.45371 11.1184 7.30959
58 1 8.6937 11.2091 3.11643
59 1 9.90953 12.1012 0.988747
60 1 9.88197 7.73703 1.01939
61 1 13.5215 7.64982 3.14233
62 1 13.3601 7.83215 7.25748
63 1 13.4762 12.1168 7.50378
64 1 8.47582 8.64598 7.2734
65 1 1.41109 1.6112 11.606
66 1 4.98394 4.30055 9.36825
67 1 6.25675 5.21771 11.5528
68 1 4.97869 4.49163 13.6141
69 1 2.5543 0.779362 13.7059
70 1 2.47346 5.21912 13.6781
71 1 5.02146 1.6717 9.61835
72 1 4.94334 1.81483 13.8034
73 1 1.13842 4.3075 15.7479
74 1 1.33823 4.23514 11.7031
75 1 2.51565 5.11939 9.56587
76 1 2.57051 0.798944 9.48666
77 1 6.16679 0.784594 11.7513
78 1 6.02184 0.790282 15.8658
79 1 6.32326 5.15184 15.7664
80 1 1.22143 1.68918 15.719
81 1 8.43315 1.71007 11.5829
82 1 12.3439 4.29751 9.40836
83 1 13.5723 5.06431 11.6283
84 1 12.2304 4.1552 13.5426
85 1 9.72871 0.823543 13.5564
86 1 9.76284 4.9547 13.4715
87 1 12.2427 1.73956 9.55848
88 1 12.2651 1.50647 13.7569
89 1 8.75229 4.12516 15.6392
90 1 8.53404 4.27632 11.3158
91 1 9.88842 5.16923 9.28506
92 1 9.97151 0.718743 9.52466
93 1 13.6636 0.89637 11.5527
94 1 13.6156 0.60688 15.8918
95 1 13.4344 5.16137 15.5667
96 1 8.59179 1.5232 15.7478
97 1 1.21895 8.7195 11.5815
98 1 4.88915 11.234 9.5053
99 1 6.18678 11.9358 11.6922
100 1 4.87425 11.2306 13.7316
101 1 2.41654 7.78878 13.5723
102 1 2.37664 11.9854 13.5888
103 1 4.7312 8.58946 9.43754
104 1 4.71739 8.67404 13.7444
105 1 1.36064 11.0426 15.754
106 1 1.26328 11.3677 11.5222
107 1 2.44262 12.1396 9.41909
108 1 2.33996 7.66793 9.45005
109 1 6.08601 7.89485 11.4738
110 1 6.09756 7.75716 15.7618
111 1 6.17682 12.0501 15.7814
112 1 1.23519 8.55097 15.7481
113 1 8.64044 8.59463 11.4472
114 1 12.1679 11.2215 9.45968
115 1 13.4748 12.2581 11.4581
116 1 12.2323 11.3005 13.5098
117 1 9.76592 7.608 13.7154
118 1 9.71092 12.0483 13.4737
119 1 12.2319 8.5935 9.46735
120 1 12.209 8.59822 13.5973
121 1 8.61096 11.2853 15.8303
122 1 8.54561 11.0787 11.4516
123 1 9.70237 12.0226 9.40987
124 1 9.81596 7.73535 9.41837
125 1 13.4772 7.66676 11.5072
126 1 13.5107 7.75571 15.6837
127 1 13.5425 11.7905 15.7682
128 1 8.55072 8.62849 15.736
129 2 15.1403 1.49969 3.38512
130 2 1.34602 2.6665 3.05658
131 2 5.6895 4.53615 1.80098
132 2 5.81612 4.77609 17.1457
133 2 5.77781 4.71659 4.14029
134 2 6.26531 6.13828 3.28478
135 2 3.88738 4.49065 5.14104
136 2 5.4838 4.46452 5.91566
137 2 2.02556 1.0653 4.52032
138 2 3.42436 0.923793 5.1542
139 2 2.07293 4.96747 6.00821
140 2 2.39638 6.12331 5.2726
141 2 5.64492 1.51413 2.06801
142 2 5.02972 2.69996 1.04948
143 2 4.59234 2.50938 5.22291
144 2 5.30503 1.3627 6.15496
145 2 1.60855 4.66554 8.27795
146 2 1.12549 3.38934 7.30645
147 2 1.74725 4.58236 3.93268
148 2 1.64022 4.87819 2.39241
149 2 3.5836 4.86454 0.8587
150 2 2.48059 6.02173 1.16515
151 2 3.40376 1.50074 1.12227
152 2 1.96292 1.2209 1.9046
153 2 5.82021 1.10711 4.16156
154 2 6.25938 13.7274 3.19807
155 2 5.84456 1.15967 8.25837
156 2 6.20527 13.7069 7.46394
157 2 7.07762 4.68079 7.15697
158 2 6.20951 6.08567 7.38627
159 2 1.77185 1.30337 6.42987
160 2 15.0409 1.38264 7.47028
161 2 8.50192 2.76143 3.14557
162 2 7.66573 1.35849 3.06357
163 2 12.1071 3.12627 17.4367
164 2 12.5515 4.47785 16.6759
165 2 12.9779 4.84258 1.97772
166 2 14.2603 4.46049 2.75821
167 2 12.5895 4.36284 4.22545
168 2 11.4014 4.60849 5.04597
169 2 10.8452 0.969279 5.35767
170 2 9.50237 1.12685 4.36407
171 2 9.77032 6.10747 5.36602
172 2 9.29316 4.87837 4.29867
173 2 11.3257 1.25348 1.11755
174 2 12.6389 1.25944 1.90514
175 2 12.3305 2.62794 5.25762
176 2 12.8934 1.29892 6.15687
177 2 8.86558 4.38935 6.62956
178 2 8.93693 3.09187 7.24481
179 2 7.62027 4.5042 3.18936
180 2 9.12315 4.62002 2.15075
181 2 9.41141 4.8169 16.9025
182 2 10.8662 4.78532 0.970877
183 2 9.15419 1.26327 17.1805
184 2 9.22701 1.21597 1.91177
185 2 13.0443 1.29326 3.81427
186 2 13.5834 13.7159 3.09804
187 2 13.0564 1.14185 8.11129
188 2 13.6743 13.6692 7.56381
189 2 13.2874 4.56683 6.31841
190 2 14.3865 4.93419 7.5687
191 2 7.86685 1.26936 7.40849
192 2 9.25958 1.11436 6.49103
193 2 1.80894 8.05031 3.81711
194 2 1.32816 9.42596 3.38217
195 2 4.09973 11.5794 1.19628
196 2 4.74626 10.1723 1.2078
197 2 7.18554 11.8648 3.06514
198 2 5.68384 11.7429 2.22591
199 2 5.49403 11.6431 4.49689
200 2 5.22719 11.6034 5.86591
201 2 1.98189 8.14841 6.21854
202 2 3.40643 8.14684 5.33615
203 2 2.43214 12.9626 5.25188
204 2 3.43723 11.7925 5.26444
205 2 3.8492 8.35625 1.04034
206 2 5.22718 8.51656 17.1214
207 2 4.85995 9.62909 5.21072
208 2 5.42064 8.28559 4.17368
209 2 1.79173 11.1716 6.57806
210 2 1.08371 10.0223 7.43034
211 2 14.9805 11.5399 3.07132
212 2 1.81007 11.3877 3.87563
213 2 2.09237 11.9921 1.91577
214 2 2.61945 13.3138 1.08401
215 2 1.85062 7.9287 1.68809
216 2 1.88348 7.97278 16.9604
217 2 7.29728 7.7304 2.99145
218 2 5.77016 8.15498 2.20089
219 2 5.69781 8.06433 6.2469
220 2 7.04104 8.2864 7.23008
221 2 5.45186 11.7578 8.07168
222 2 7.02905 11.7001 7.40069
223 2 14.8747 8.23109 7.2324
224 2 1.2736 8.44263 8.33376
225 2 9.00765 8.2877 4.00691
226 2 9.21617 8.12149 2.39386
227 2 11.3291 11.6097 0.971684
228 2 12.0921 10.2383 0.918511
229 2 13.0223 11.8098 2.23709
230 2 13.1374 12.0472 3.86734
231 2 12.8763 11.8025 6.03764
232 2 11.2192 11.4429 5.25266
233 2 10.7435 8.152 5.42072
234 2 9.24288 8.03981 5.95621
235 2 9.84903 12.9911 5.13087
236 2 9.43178 11.657 4.4395
237 2 12.9153 8.33639 1.89931
238 2 12.6882 8.32931 17.1283
239 2 12.4068 8.48319 4.16232
240 2 12.1949 9.88242 5.32362
241 2 9.11026 11.4629 8.1599
242 2 9.1871 11.4912 6.47667
243 2 8.70557 10.0733 2.88342
244 2 9.08775 11.4753 2.28041
245 2 9.88428 13.1143 0.873584
246 2 9.52732 11.6957 16.9812
247 2 10.7678 8.16211 1.02037
248 2 9.82783 6.4635 0.922878
249 2 14.4942 7.9932 3.28878
250 2 13.4499 6.71894 3.16381
251 2 13.314 6.7779 7.0673
252 2 12.7559 8.36612 6.63329
253 2 14.4798 11.6527 7.32394
254 2 13.0592 11.5948 8.25829
255 2 8.49824 9.72235 7.44146
256 2 8.95462 8.33514 8.07221
257 2 2.01275 1.31943 10.7055
258 2 15.0472 1.2038 11.6326
259 2 5.29327 4.53711 10.2849
260 2 5.45178 4.61198 8.70253
261 2 6.11887 6.30901 11.4615
262 2 5.80431 5.06531 12.3989
263 2 4.03198 4.61858 13.6713
264 2 5.05847 3.52486 13.7666
265 2 2.38442 1.16599 12.6855
266 2 2.06419 1.13859 14.412
267 2 1.9631 4.93171 14.6348
268 2 2.50506 6.31815 13.737
269 2 4.18164 1.18928 9.33388
270 2 4.962 2.61854 9.45288
271 2 3.86637 1.59382 13.6701
272 2 5.26709 1.46505 14.6391
273 2 1.5579 4.63339 16.456
274 2 1.16869 3.34427 15.6463
275 2 1.84684 4.41351 12.5222
276 2 1.3652 2.98595 11.5675
277 2 1.86348 4.8769 10.2069
278 2 3.39467 4.65374 9.60798
279 2 2.13806 1.06934 8.57112
280 2 2.54801 13.6035 9.47959
281 2 5.76403 1.04411 11.066
282 2 5.78979 1.14517 12.4722
283 2 5.9872 13.7137 15.8347
284 2 5.49053 0.976259 16.6383
285 2 7.24731 4.62371 15.7342
286 2 5.61416 4.82751 14.9551
287 2 15.0253 0.965642 15.7553
288 2 1.55973 1.20575 16.6259
289 2 7.50788 1.43996 11.6741
290 2 8.58577 2.64308 11.5249
291 2 12.7553 4.55941 8.53235
292 2 12.8383 4.62931 10.2456
293 2 14.5598 4.59808 11.7515
294 2 13.124 4.55332 12.3142
295 2 12.8416 4.59042 14.3379
296 2 12.2672 3.15533 13.7374
297 2 9.62066 13.6739 13.5068
298 2 9.22988 1.15819 12.8026
299 2 10.7456 4.59156 13.26
300 2 9.2794 4.90839 12.5772
301 2 12.0185 2.60354 9.49772
302 2 11.297 1.40071 9.89741
303 2 12.6682 1.09592 14.4663
304 2 11.3618 1.19515 13.7843
305 2 8.58112 3.11596 15.566
306 2 9.04448 4.48344 14.708
307 2 8.83963 4.75199 10.5464
308 2 7.68501 4.75895 11.5111
309 2 9.55045 4.93581 8.45756
310 2 10.909 4.97327 9.28101
311 2 9.51501 1.17405 10.5166
312 2 9.6283 0.982111 8.75559
313 2 13.1105 1.30592 10.6997
314 2 13.0017 1.06006 12.3421
315 2 12.9889 1.20394 16.7359
316 2 13.4214 13.3986 16.1415
317 2 13.3345 6.03703 15.3729
318 2 14.4055 4.9509 15.5856
319 2 7.59341 1.24963 15.6411
320 2 9.15727 1.15532 14.8988
321 2 1.65525 8.21748 10.8174
322 2 1.36696 9.8796 11.6584
323 2 5.32624 11.5897 10.3884
324 2 3.9342 11.286 9.48153
325 2 5.6273 11.5596 12.3994
326 2 6.01703 12.987 11.7318
327 2 3.88072 11.3992 13.5781
328 2 4.87462 10.2837 13.8245