ITEM: TIMESTEP
0
ITEM: NUMBER OF ATOMS
384
ITEM: BOX BOUNDS pp pp pp
-3.1180958401302572e-01 1.5311809584013066e+01
-3.1180958401302572e-01 1.5311809584013066e+01
-3.1180958401302572e-01 1.5311809584013066e+01
ITEM: ATOMS id type x y z
1 1 4.57679 5.50123 13.6944
2 1 14.8875 3.66367 14.1079
3 1 8.20115 10.8513 3.91518
4 1 1.55859 4.11103 4.68534
5 1 14.0046 11.0534 10.4291
6 1 10.1562 -0.0244194 -0.0179537
7 1 13.1461 9.78511 5.92123
8 1 3.48566 13.6848 7.87681
9 1 3.32305 6.30373 3.20589
10 1 5.30735 8.37688 2.36991
11 1 13.7801 6.32188 1.70807
12 1 0.692367 10.1945 14.1186
13 1 15.0627 5.43363 4.6639
14 1 9.98456 5.97612 7.92121
15 1 12.4056 7.19481 3.96576
16 1 9.83562 2.64919 6.79506
17 1 4.60459 4.17249 11.4106
18 1 7.55062 10.3381 11.1669
19 1 8.27543 1.89543 14.4455
20 1 5.83253 14.0038 0.549654
21 1 -0.277952 13.5963 10.2649
22 1 12.6457 2.09652 6.28487
23 1 10.7129 7.40871 14.2399
24 1 2.2119 7.88472 6.40809
25 1 10.4542 9.69036 5.97773
26 1 -0.282536 8.22967 4.81222
27 1 1.6652 11.2607 4.20606
28 1 6.17365 -0.094545 10.725
29 1 12.1932 8.4542 0.381712
30 1 2.29814 6.67565 12.652
31 1 3.74006 5.65533 5.77839
32 1 7.64075 12.3667 7.75101
33 1 2.57949 3.81144 2.08856
34 1 3.31976 13.3432 0.0677147
35 1 -0.0967938 5.37115 7.46928
36 1 11.1426 14.5448 7.59235
37 1 1.26174 14.8074 2.57217
38 1 6.41618 0.335516 13.3898
39 1 0.207637 9.92258 2.18818
40 1 12.6731 13.1901 12.8323
41 1 1.29363 11.9761 7.9846
42 1 13.2286 14.8362 0.439531
43 1 -0.123887 15.1905 5.01064
44 1 8.80795 12.7708 12.0788
45 1 12.4172 6.75949 6.79319
46 1 9.49869 10.6014 8.40823
47 1 10.544 10.9934 13.3575
48 1 8.99001 12.8372 5.44675
49 1 4.04829 1.51716 14.6149
50 1 6.69928 13.1999 13.7041
51 1 4.43379 6.10378 9.26553
52 1 11.4216 -0.0969869 13.0672
53 1 8.10878 14.4288 3.40524
54 1 4.3962 2.37166 3.28729
55 1 12.1316 11.4523 8.45349
56 1 8.7458 10.8517 -0.213292
57 1 1.53862 1.7361 8.48855
58 1 8.69585 5.89847 11.616
59 1 1.22107 9.19196 8.49846
60 1 10.635 10.5731 3.14594
61 1 11.4957 4.51089 15.2148
62 1 10.9209 6.7156 10.446
63 1 4.94638 10.4223 10.3546
64 1 7.94749 8.55464 1.09697
65 1 14.5919 7.80968 8.4877
66 1 5.26248 14.7619 3.62401
67 1 5.62202 2.26942 6.97039
68 1 1.29568 -0.0251437 10.348
69 1 11.6689 12.7598 1.5126
70 1 8.10674 4.34492 9.29769
71 1 15.2574 12.5827 5.71394
72 1 5.13758 11.4238 7.95676
73 1 0.807368 7.59384 14.5622
74 1 1.07308 4.35508 11.6836
75 1 -0.103901 0.899318 12.6958
76 1 12.4336 12.7126 5.99741
77 1 6.5124 0.898083 1.44852
78 1 5.22926 7.74021 7.34722
79 1 4.69818 3.85809 0.25821
80 1 14.6318 1.53081 0.260033
81 1 8.7843 1.26425 2.88569
82 1 10.1715 2.86217 10.2074
83 1 1.97586 4.56417 8.94346
84 1 12.6683 15.2799 4.82665
85 1 10.1623 4.44247 4.67024
86 1 8.26116 6.29332 15.2182
87 1 2.75694 2.33071 12.3211
88 1 10.1168 15.0402 10.6766
89 1 0.0214213 11.8389 0.424274
90 1 9.92368 3.73613 12.9889
91 1 7.93039 3.8304 3.09944
92 1 3.45334 12.7245 2.72154
93 1 13.7442 3.34545 8.32257
94 1 1.06378 7.50528 1.70711
95 1 13.5608 9.51663 12.896
96 1 6.16563 2.34739 9.6158
97 1 6.00658 4.12469 4.96415
98 1 13.0409 2.11594 12.6389
99 1 9.44842 7.22402 5.61094
100 1 3.08802 8.31472 10.412
101 1 4.27645 12.564 12.0172
102 1 0.247817 12.7339 12.6695
103 1 6.92237 8.32243 4.80264
104 1 10.2096 9.4039 11.0142
105 1 8.10819 14.6608 9.11245
106 1 0.724807 14.5893 14.8093
107 1 7.38606 3.87893 0.612739
108 1 13.59 6.17467 11.3541
109 1 6.57455 9.82429 14.0409
110 1 6.72525 7.05567 13.1783
111 1 3.66994 10.3273 5.96103
112 1 1.66543 1.60839 5.77048
113 1 9.05834 13.0173 1.11863
114 1 4.11235 0.213829 6.02437
115 1 10.3679 8.11545 2.36753
116 1 3.8208 14.5044 10.4834
117 1 6.27696 11.8524 2.07137
118 1 3.1417 11.1769 14.1451
119 1 12.971 3.21476 1.56998
120 1 12.4061 13.5738 10.1924
121 1 14.0948 6.56232 13.8874
122 1 11.4172 0.689063 2.37021
123 1 1.65778 1.52802 1.12949
124 1 7.74882 0.714644 6.86752
125 1 13.0368 10.8806 0.0461404
126 1 14.1536 3.59273 10.8941
127 1 12.9937 3.74289 4.44237
128 1 4.93288 10.2326 0.481908
129 2 4.52916 4.87676 12.9369
130 2 4.69703 5.06241 14.547
131 2 14.6886 4.58995 14.3163
132 2 0.0945933 3.63697 13.6264
133 2 7.74221 10.0755 4.24889
134 2 8.99342 10.7228 3.34745
135 2 0.788771 4.72927 4.53377
136 2 1.81069 3.95163 3.77685
137 2 14.4008 11.9252 10.4575
138 2 13.9069 10.7269 11.3647
139 2 10.6725 0.201823 0.765773
140 2 9.47367 0.652849 -0.0632908
141 2 13.5922 9.97565 6.76473
142 2 13.2152 10.5455 5.32572
143 2 3.67781 14.0964 8.7488
144 2 3.53939 14.3835 7.27865
145 2 3.09567 5.45978 2.78243
146 2 3.60518 6.19337 4.09913
147 2 5.08995 9.05489 1.76222
148 2 4.54185 7.79795 2.5309
149 2 13.4381 6.67871 2.59019
150 2 14.7355 6.25337 1.79471
151 2 0.77524 9.18308 14.2443
152 2 0.388115 10.6288 14.9234
153 2 14.1894 4.91997 4.56536
154 2 14.9228 6.4107 4.60147
155 2 10.8762 5.93786 7.61697
156 2 9.58879 6.53361 7.20672
157 2 12.1014 7.06547 4.8105
158 2 11.5829 7.27566 3.48345
159 2 9.70669 3.06202 7.62541
160 2 9.96186 3.35305 6.0781
161 2 3.89127 3.51534 11.556
162 2 5.31618 3.63484 11.0911
163 2 8.36256 9.80951 10.99
164 2 7.91946 11.2623 11.3115
165 2 7.80256 2.56448 14.9346
166 2 7.58248 1.21916 14.1315
167 2 6.10462 13.5421 -0.242407
168 2 4.85977 13.825 0.528199
169 2 14.4101 13.8153 10.1623
170 2 -0.0704958 13.4422 11.1966
171 2 11.7088 2.1063 6.54679
172 2 12.6961 1.18401 5.89058
173 2 10.9921 7.5299 13.3514
174 2 11.2636 8.01166 14.7268
175 2 1.57728 7.89927 5.7134
176 2 1.87051 8.36741 7.16573
177 2 11.4302 9.71213 6.20698
178 2 10.3486 10.1292 5.1128
179 2 14.4149 8.445 5.04536
180 2 0.00164071 8.8165 4.03796
181 2 1.02838 11.8189 4.67407
182 2 2.36173 10.8675 4.79517
183 2 6.32838 0.734699 10.265
184 2 5.21972 -0.301306 10.6492
185 2 12.568 9.37229 0.310345
186 2 12.8634 7.95827 0.824663
187 2 2.56428 7.41349 12.0109
188 2 3.14156 6.4193 13.0935
189 2 3.16723 6.41343 5.9805
190 2 3.10221 4.98312 5.63197
191 2 7.73547 13.1577 8.33842
192 2 8.06104 12.6116 6.87934
193 2 1.75422 3.38105 1.7562
194 2 3.25148 3.1727 2.47226
195 2 3.15037 12.6412 14.9757
196 2 3.16776 12.9566 0.983888
197 2 0.0720948 5.37286 6.52711
198 2 -0.245356 6.34024 7.61737
199 2 11.6512 14.8569 8.35832
200 2 11.802 13.9131 7.23812
201 2 2.07792 14.3411 2.56175
202 2 1.50629 0.044002 2.08403
203 2 6.3968 14.9261 13.4491
204 2 6.20534 0.425411 12.4267
205 2 0.660795 9.1318 1.85703
206 2 0.694078 10.391 2.87312
207 2 12.3708 14.0972 13.0916
208 2 12.1841 12.5232 13.366
209 2 2.09163 12.5603 7.87369
210 2 0.901668 12.2269 8.80367
211 2 13.6981 0.109016 0.335681
212 2 13.4443 14.3386 15.279
213 2 14.5376 15.2076 4.93591
214 2 0.228484 14.9795 4.13145
215 2 9.24837 13.4527 11.622
216 2 9.52013 12.2417 12.5392
217 2 12.875 7.30125 7.44426
218 2 13.1287 6.09272 6.70831
219 2 8.70364 11.2231 8.31889
220 2 9.67729 10.2938 7.51515
221 2 10.4955 10.2933 12.7118
222 2 10.0325 10.7711 14.1408
223 2 9.87115 13.0955 5.5737
224 2 8.95145 12.0108 4.93614
225 2 4.74251 0.928236 14.2575
226 2 3.48888 1.81195 13.8977
227 2 7.56401 13.1017 13.1985
228 2 6.02622 12.6782 13.2435
229 2 3.65548 5.64787 8.88705
230 2 4.53028 5.65688 10.1121
231 2 10.7483 -0.0654962 13.7661
232 2 11.7812 0.808853 13.0779
233 2 8.36482 -0.291862 3.46612
234 2 8.34757 14.0066 4.25098
235 2 5.1094 1.81781 2.95108
236 2 4.6411 2.96006 4.03817
237 2 12.5339 11.0417 9.22128
238 2 11.1841 11.2095 8.49369
239 2 8.60742 10.312 0.576946
240 2 8.69537 11.7883 0.0583599
241 2 1.42282 1.68337 7.50469
242 2 1.60998 2.65673 8.73322
243 2 8.87953 5.11923 12.1645
244 2 8.03029 6.40716 12.1505
245 2 1.95332 8.95172 9.16853
246 2 1.28006 10.1574 8.3047
247 2 11.2632 11.2403 2.79611
248 2 10.7957 9.70539 2.72449
249 2 11.5653 5.40273 -0.288322
250 2 11.1896 4.32648 14.2564
251 2 10.4204 6.65681 9.62663
252 2 10.2607 6.46258 11.0571
253 2 5.87632 10.1769 10.5904
254 2 4.94364 10.8143 9.46912
255 2 7.91802 7.6928 0.604333
256 2 7.17835 8.74025 1.63464
257 2 14.2008 7.92642 9.35992
258 2 -0.267797 8.44072 8.55252
259 2 6.16366 14.3915 3.8125
260 2 4.75946 14.0077 3.26281
261 2 6.35085 1.60272 6.90857
262 2 4.84301 1.75402 6.76165
263 2 1.34137 0.662419 9.62968
264 2 0.817817 14.7755 10.0578
265 2 10.8342 13.0339 1.10914
266 2 12.2496 13.5788 1.43103
267 2 7.99168 4.93257 10.0429
268 2 8.59208 4.87508 8.55834
269 2 -0.0863874 13.5026 5.64494
270 2 0.00602987 12.1735 6.56287
271 2 6.0476 11.6847 7.84187
272 2 4.65027 12.2574 7.8746
273 2 -0.10786 7.21382 14.4417
274 2 1.40859 7.20909 13.8607
275 2 1.10879 5.19843 12.1297
276 2 0.142322 4.18446 11.4107
277 2 0.192301 0.569522 11.8253
278 2 0.262058 0.216297 13.3227
279 2 13.325 12.966 5.76917
280 2 12.474 12.1815 6.79075
281 2 6.96454 1.33987 0.72514
282 2 6.22808 -0.0168944 1.14781
283 2 5.28424 6.95392 7.95734
284 2 5.69738 8.44349 7.79401
285 2 4.59695 2.96295 -0.156096
286 2 4.05776 3.8329 1.0606
287 2 14.2623 2.20361 0.861912
288 2 14.7961 2.02476 15.1013
289 2 7.90736 0.984376 2.41964
290 2 8.42535 2.08554 3.23522
291 2 9.33834 3.30929 9.83257
292 2 10.1754 1.88055 10.1119
293 2 1.75381 4.52695 9.90946
294 2 1.11552 4.78978 8.54253
295 2 12.2645 0.0873025 4.07993
296 2 12.0334 14.6435 5.15054
297 2 9.97133 5.30379 5.02216
298 2 9.51596 4.30903 3.95105
299 2 9.11176 6.41377 14.7882
300 2 7.57568 6.54 14.599
301 2 2.07189 2.92609 11.9449
302 2 2.69894 1.52435 11.845
303 2 10.8501 14.3815 10.4642
304 2 10.5118 -0.206863 11.478
305 2 0.274248 12.7719 0.61942
306 2 0.108425 11.2293 1.22179
307 2 9.70727 2.84376 13.3266
308 2 10.3129 3.49932 12.1129
309 2 7.16744 3.93944 3.6373
310 2 7.68964 3.77425 2.12389
311 2 2.7812 12.2345 3.34142
312 2 4.17512 12.108 2.65722
313 2 13.4252 2.63657 7.76521
314 2 14.4885 3.85196 7.85505
315 2 1.16553 7.50623 0.684607
316 2 1.80702 6.9489 2.01705
317 2 14.4305 9.58843 13.243
318 2 13.0187 10.0336 13.4694
319 2 5.70123 2.57075 8.68482
320 2 6.80813 3.05178 9.52933
321 2 5.35787 4.80808 5.12533
322 2 5.96938 3.53575 5.71789
323 2 13.0854 2.74416 13.3668
324 2 13.871 1.59988 12.7008
325 2 8.54415 7.16809 5.28465
326 2 9.76316 8.11779 5.62097
327 2 3.5805 7.58031 10.0651
328 2 3.76188 9.05652 10.3377
329 2 4.55808 11.8882 11.3243
330 2 3.56374 12.075 12.5347
331 2 0.334551 11.7965 12.6005
332 2 0.24849 12.8839 13.5924
333 2 6.35726 8.22802 5.65351
334 2 6.38531 8.12785 4.02112
335 2 10.214 9.5859 10.0692
336 2 10.6644 8.57403 11.1276
337 2 8.95214 14.8857 9.64428
338 2 7.3584 14.7538 9.70982
339 2 0.591563 15.0693 0.0182509
340 2 1.70203 14.3696 14.7724
341 2 6.4741 3.89198 0.306924
342 2 7.8908 4.74294 0.474307
343 2 13.7745 5.25403 11.174
344 2 12.6407 6.3597 11.1641
345 2 6.61181 10.3071 13.1711
346 2 7.38294 10.2018 14.4287
347 2 5.92965 6.53312 13.3142
348 2 6.65131 8.00804 13.4902
349 2 4.1508 10.9057 6.58172
350 2 3.72612 9.43762 6.27968
351 2 0.960879 1.05271 5.33877
352 2 1.48012 2.49213 5.40543
353 2 8.71011 13.4532 1.93204
354 2 8.99593 13.78 0.520382
355 2 3.28533 0.709593 5.89467
356 2 4.52263 -0.105961 5.1872
357 2 10.8957 8.12501 1.5533
358 2 9.392 8.09909 2.00114
359 2 2.85608 14.8006 10.6062
360 2 3.90293 13.7417 11.0449
361 2 6.48734 12.6937 1.54518
362 2 7.04029 11.6822 2.67807
363 2 2.24681 10.7375 14.3261
364 2 3.668 10.6767 14.8241
365 2 12.3482 3.69431 0.972113
366 2 13.2921 3.83378 2.19605
367 2 12.5073 12.8061 9.60602
368 2 12.5354 13.311 11.1419
369 2 13.9506 6.55755 12.8999
370 2 13.4462 7.1125 14.3857
371 2 11.8334 1.45816 2.05064
372 2 10.4376 0.894116 2.52875
373 2 0.844146 1.54638 0.605455
374 2 2.39804 1.38307 0.478242
375 2 7.77884 0.12269 7.66547
376 2 8.60235 1.23456 6.91956
377 2 12.4122 11.5105 0.551261
378 2 13.9301 11.2794 0.187093
379 2 13.8259 3.47873 9.96028
380 2 13.5184 3.1733 11.5056
381 2 12.9666 3.11167 5.2382
382 2 12.0906 4.05916 4.29522
383 2 5.48443 10.7696 1.07083
384 2 5.47524 10.05 -0.286949
ITEM: TIMESTEP
200
ITEM: NUMBER OF ATOMS
384
ITEM: BOX BOUNDS pp pp pp
-2.1868351273538700e-01 1.5218683512735430e+01
-2.1868351273538700e-01 1.5218683512735430e+01
-2.1868351273538700e-01 1.5218683512735430e+01
ITEM: ATOMS id type x y z
1 1 4.52309 5.61061 13.0909
2 1 14.5163 3.88809 13.9216
3 1 7.56155 10.6516 3.84945
4 1 1.72093 3.75799 4.58429
5 1 13.678 10.1561 10.3214
6 1 9.98183 0.193747 -0.0527885
7 1 13.3151 9.62277 6.05065
8 1 3.3297 13.5752 7.55119
9 1 3.16396 6.43251 2.81415
10 1 5.55067 7.8767 2.57111
11 1 13.7734 6.55375 1.81474
12 1 0.550119 10.0338 13.7993
13 1 14.9218 5.47884 4.85775
14 1 9.93386 5.94475 7.90988
15 1 12.2226 7.00655 4.01036
16 1 9.94393 2.7358 6.77497
17 1 4.72066 3.92401 11.1456
18 1 7.29255 10.4114 11.3206
19 1 8.34854 1.95733 14.4039
20 1 5.79114 13.9331 0.538167
21 1 -0.132509 13.321 10.0435
22 1 12.5475 1.86631 6.26213
23 1 10.6496 7.14366 14.2151
24 1 1.9479 7.86501 6.34034
25 1 10.4331 9.2751 5.79906
26 1 15.0934 8.19316 4.73355
27 1 1.79778 11.4414 4.38773
28 1 5.92299 0.357091 10.5855
29 1 12.2506 8.01684 0.355553
30 1 2.15754 6.58581 12.3215
31 1 3.56539 5.74236 5.31283
32 1 7.68988 11.9515 7.80695
33 1 3.21926 3.55752 2.1842
34 1 3.00175 13.2789 0.155036
35 1 -0.00348419 5.29524 7.60292
36 1 10.6164 14.5346 7.36974
37 1 1.21576 14.541 2.27728
38 1 6.12505 0.403231 13.3158
39 1 0.420891 9.8649 2.73536
40 1 12.2625 13.0723 12.5574
41 1 0.908814 12.2686 8.07539
42 1 13.5573 14.2386 0.225107
43 1 -0.0621379 14.9464 4.4921
44 1 8.48442 12.7558 11.8009
45 1 12.5259 6.29535 6.8511
46 1 9.65953 10.293 8.15344
47 1 10.3758 10.998 12.8132
48 1 8.80216 12.3876 5.42936
49 1 3.98546 1.64731 14.2141
50 1 6.50449 13.2232 13.4342
51 1 4.08262 5.94668 9.33822
52 1 11.2066 -0.00429813 13.1384
53 1 7.55738 14.2391 3.53642
54 1 4.74277 2.0783 3.57499
55 1 12.2286 11.201 8.34934
56 1 8.86383 10.5337 -0.158871
57 1 1.72332 1.71053 8.32752
58 1 8.48181 5.59849 11.5129
59 1 1.22527 9.12732 8.50502
60 1 10.4545 10.4226 3.38882
61 1 11.5475 4.36759 14.8917
62 1 10.4673 6.89822 10.4915
63 1 4.90566 10.2054 10.0819
64 1 7.9197 8.04249 1.34117
65 1 14.3225 7.52648 8.62467
66 1 4.89793 14.7488 3.71572
67 1 5.76572 1.93463 6.89084
68 1 1.35351 0.442275 10.3586
69 1 11.4496 12.5173 1.68814
70 1 8.29892 4.26661 9.34141
71 1 15.1699 12.606 5.69995
72 1 4.93798 11.2968 7.58452
73 1 0.920494 7.45695 14.3809
74 1 1.04536 4.25612 11.7937
75 1 -0.0697817 0.550254 12.7953
76 1 12.4215 12.5398 6.00464
77 1 6.18677 1.02199 1.41277
78 1 5.57318 8.04874 7.05725
79 1 4.62346 4.0259 -0.199228
80 1 14.5784 1.75238 0.275943
81 1 8.57079 1.30093 2.66224
82 1 10.1292 2.58766 10.1788
83 1 1.8486 4.3845 8.90701
84 1 12.6758 15.0534 4.23696
85 1 10.2587 4.8119 4.91515
86 1 8.33284 6.29078 14.8716
87 1 2.74154 2.23743 12.0539
88 1 9.94043 14.6918 10.7519
89 1 -0.18113 11.2798 0.737303
90 1 9.64534 3.58378 12.7371
91 1 7.91266 3.88346 3.56323
92 1 3.31975 12.6983 2.6915
93 1 13.4449 3.55973 8.13909
94 1 0.835134 7.56175 1.72909
95 1 13.4123 9.99494 12.7831
96 1 6.17831 2.74596 9.33174
97 1 5.87787 3.84929 5.14161
98 1 13.0456 1.85398 12.7045
99 1 8.9827 7.04784 5.44275
100 1 3.1048 8.20043 10.259
101 1 4.37737 12.2804 12.0298
102 1 0.556606 12.7344 12.4642
103 1 6.76336 8.50236 4.74123
104 1 9.70066 9.49927 10.7437
105 1 7.92885 14.5384 8.96493
106 1 0.808536 14.3535 14.5224
107 1 7.39284 3.97759 0.296552
108 1 13.3982 6.62724 10.8711
109 1 6.65924 9.59008 13.6496
110 1 6.737 6.88276 13.0617
111 1 3.54435 9.79674 5.61471
112 1 1.49943 1.23969 5.71583
113 1 9.10955 13.2612 1.06716
114 1 3.9311 0.21014 6.17917
115 1 10.3855 8.06514 2.28718
116 1 3.74332 14.2107 10.333
117 1 5.68832 11.5946 2.22761
118 1 3.23071 11.0372 14.2131
119 1 12.347 2.90182 1.53592
120 1 12.4946 13.6683 10.1046
121 1 13.9644 6.53351 13.6434
122 1 11.1335 0.875491 2.48177
123 1 1.82367 1.40083 1.05012
124 1 8.04574 0.729653 6.65912
125 1 12.7046 10.6682 -0.187605
126 1 14.0056 3.77907 10.7887
127 1 12.5438 4.16282 4.04101
128 1 4.89392 9.6975 0.435285
129 2 4.74325 4.8948 12.3532
130 2 4.34884 5.05843 14.0536
131 2 14.2197 4.84676 13.9156
132 2 -0.17507 3.87827 13.3875
133 2 7.22863 9.70839 4.31139
134 2 8.5116 10.396 3.36254
135 2 1.01107 4.31793 4.422
136 2 2.28977 3.7923 3.77496
137 2 14.4215 10.8417 10.27
138 2 13.5517 10.1174 11.3367
139 2 10.5619 0.552702 0.614524
140 2 9.27674 0.733733 14.9101
141 2 13.4274 9.63943 7.10025
142 2 13.3549 10.5759 5.73987
143 2 3.53667 14.0805 8.48069
144 2 3.58616 14.1187 6.84137
145 2 3.18519 5.83763 2.30152
146 2 3.55413 6.2281 3.67054
147 2 5.38614 8.57831 1.79136
148 2 4.90684 7.10605 2.50704
149 2 13.3016 6.63602 2.72784
150 2 14.7147 6.89142 2.02662
151 2 0.88336 9.1404 13.8401
152 2 0.330499 10.3732 14.6684
153 2 13.9014 5.09807 4.56297
154 2 14.9343 6.4451 4.56773
155 2 10.8033 5.9475 7.49148
156 2 9.45169 6.56773 7.29688
157 2 12.5716 7.07858 4.95644
158 2 11.5578 7.81868 3.84372
159 2 9.45848 3.13688 7.49233
160 2 9.97069 3.66508 6.35548
161 2 4.09568 3.20008 11.3636
162 2 5.55907 3.38189 10.6112
163 2 8.30667 9.99062 11.1043
164 2 7.81896 11.2958 11.2865
165 2 8.01739 2.77741 14.9999
166 2 7.46699 1.62642 13.8137
167 2 6.09801 13.6501 15.0861
168 2 4.87389 13.8245 0.3513
169 2 14.3933 13.6991 9.88487
170 2 0.186705 13.1991 10.9708
171 2 11.5152 2.10252 6.56328
172 2 12.4591 0.994108 5.74236
173 2 10.7455 7.51723 13.4639
174 2 11.274 7.74972 14.932
175 2 1.26008 7.76147 5.71924
176 2 1.5352 8.48235 7.00804
177 2 11.3793 9.12786 5.83505
178 2 10.4636 9.93617 5.08673
179 2 14.5116 8.85222 5.26524
180 2 0.135037 8.68216 4.03439
181 2 0.977066 11.8573 4.99684
182 2 2.53831 11.0186 4.91091
183 2 6.14787 1.11394 9.88733
184 2 5.08321 0.0167724 10.4196
185 2 12.3172 8.99209 0.0465275
186 2 12.9389 7.33071 0.86579
187 2 2.23466 7.11819 11.6185
188 2 3.15866 6.19116 12.678
189 2 2.91169 6.39014 5.59667
190 2 2.92286 4.96668 5.21045
191 2 7.46718 12.6594 8.27351
192 2 7.97492 12.2448 7.00249
193 2 2.78598 3.08483 1.51282
194 2 3.71373 3.14487 2.82903
195 2 3.19531 12.3834 14.9956
196 2 2.87286 13.0176 1.05037
197 2 15.185 5.49466 6.51345
198 2 15.075 6.1054 7.82101
199 2 11.2264 -0.149554 7.59055
200 2 11.3071 13.867 7.01193
201 2 2.02581 14.0711 2.4309
202 2 1.4513 -0.0325209 1.79742
203 2 6.27451 14.7683 13.3498
204 2 5.87244 0.365207 12.4345
205 2 0.933002 9.23274 2.26216
206 2 0.856636 10.3487 3.5242
207 2 11.6173 13.8884 12.6723
208 2 11.6634 12.1832 12.7076
209 2 1.67268 12.931 8.02524
210 2 0.353768 12.6632 8.89754
211 2 13.1698 15.1919 0.400374
212 2 13.5522 14.1778 14.6028
213 2 14.36 -0.119009 4.52279
214 2 0.387304 14.7422 3.50977
215 2 9.00066 13.1793 11.2498
216 2 9.26125 12.4243 12.1547
217 2 12.995 6.94314 7.53315
218 2 12.7775 5.40393 6.74286
219 2 8.8471 11.0013 8.23093
220 2 9.8775 9.99599 7.24859
221 2 10.2344 10.2718 12.1178
222 2 9.88214 10.5679 13.682
223 2 9.73788 12.0994 5.45836
224 2 8.45389 11.7097 4.9248
225 2 4.70286 1.12275 13.8009
226 2 3.32179 1.94397 13.4195
227 2 7.3265 13.0493 12.9558
228 2 5.68999 12.9557 13.0338
229 2 3.43055 5.3644 9.14984
230 2 4.75873 5.56329 9.94695
231 2 10.912 0.0777398 14.1686
232 2 11.8956 0.719378 13.0442
233 2 7.99087 15.1061 3.37
234 2 8.0643 13.7306 4.24671
235 2 5.20833 1.71744 2.75298
236 2 5.28326 2.74597 3.99797
237 2 12.7013 10.7596 9.18198
238 2 11.3632 10.7548 8.32908
239 2 8.60693 9.81303 0.415818
240 2 8.75625 11.2481 0.379165
241 2 1.52919 1.60978 7.28549
242 2 1.66601 2.76557 8.44246
243 2 8.87968 4.86194 12.0254
244 2 7.75033 6.02704 12.0302
245 2 1.66267 8.86605 9.26017
246 2 1.25 10.1053 8.5447
247 2 10.8462 11.1657 2.85617
248 2 10.715 9.58519 2.84007
249 2 11.0366 5.21947 14.8515
250 2 11.0243 3.98167 13.9352
251 2 10.341 6.34645 9.62421
252 2 9.66197 6.34345 11.0056
253 2 5.87463 9.9421 10.2741
254 2 5.17006 10.6401 9.19546
255 2 8.03185 7.41908 0.782201
256 2 7.09956 7.93602 1.97135
257 2 13.9269 7.15872 9.50859
258 2 15.0231 8.05248 9.02684
259 2 5.7559 14.5333 3.92068
260 2 4.34965 13.8691 3.42692
261 2 6.56265 1.49721 6.64358
262 2 5.01834 1.37028 6.83123
263 2 1.27047 0.935507 9.35365
264 2 0.769796 15.0897 10.1736
265 2 10.7068 12.9297 1.42035
266 2 12.259 13.0014 1.66655
267 2 8.09191 4.86992 10.2651
268 2 8.64187 5.12368 8.66253
269 2 -0.114303 13.4248 5.3991
270 2 0.180667 12.5475 6.64485
271 2 5.84807 11.496 7.48987
272 2 4.39354 12.1584 7.71622
273 2 -0.0457677 7.16048 14.2437
274 2 1.46392 7.22483 13.6277
275 2 1.3891 5.29462 11.9949
276 2 0.149288 4.23686 11.3364
277 2 0.303251 0.878323 11.9001
278 2 0.690521 0.360433 13.2776
279 2 13.4789 12.7538 5.96331
280 2 12.379 11.9581 6.94185
281 2 6.15652 1.55742 0.503223
282 2 5.95565 0.128179 1.237
283 2 5.09514 7.17401 7.17035
284 2 4.94174 8.73959 7.33247
285 2 4.34871 3.11065 14.5883
286 2 4.14901 4.01921 0.701925
287 2 13.7165 2.14009 0.818298
288 2 14.7601 2.47895 15.1335
289 2 7.7038 1.25189 1.93311
290 2 8.112 2.23736 3.06547
291 2 9.41114 3.12705 9.66078
292 2 10.3326 1.68077 10.2591
293 2 1.42411 4.54653 9.61916
294 2 1.17821 4.95671 8.20215
295 2 12.0936 -0.150177 3.42846
296 2 12.356 14.2239 4.54644
297 2 9.87048 5.85387 4.99538
298 2 9.42948 4.35647 4.23399
299 2 8.94977 6.84109 14.4829
300 2 7.61687 6.22014 14.1088
301 2 1.95691 2.83608 11.8556
302 2 2.56479 1.61765 11.3326
303 2 11.0027 14.2989 10.4255
304 2 10.1502 -0.211515 11.5978
305 2 15.1909 12.2192 0.91072
306 2 -0.180477 10.8386 1.62502
307 2 9.22401 2.51211 12.9997
308 2 10.1268 3.48742 12.1247
309 2 7.02141 4.02138 4.18755
310 2 7.72994 4.35819 2.60856
311 2 2.78993 12.2492 3.50819
312 2 4.23273 11.9973 2.5403
313 2 13.2798 2.76042 7.5933
314 2 14.3098 4.05205 8.04188
315 2 0.681797 7.37916 0.766862
316 2 1.67743 7.15374 2.18983
317 2 14.5057 10.0307 12.8748
318 2 12.9114 10.4842 13.4736
319 2 5.8999 2.4376 8.42012
320 2 7.07802 3.19122 9.13361
321 2 5.082 4.57766 5.25138
322 2 5.68205 3.07354 5.83882
323 2 13.1866 2.48727 13.4722
324 2 13.9168 1.22153 12.7979
325 2 8.02758 7.29128 5.08099
326 2 9.41381 7.93003 5.57994
327 2 3.45845 7.30946 10.0046
328 2 3.81196 8.79976 10.135
329 2 4.66151 11.6786 11.1729
330 2 4.10397 11.7092 12.7552
331 2 0.211552 11.957 12.9051
332 2 0.356357 13.2599 13.1901
333 2 6.17536 8.4085 5.67229
334 2 6.23474 8.37085 4.04719
335 2 9.81163 9.74855 9.73009
336 2 10.1744 8.66249 10.7141
337 2 8.65109 14.7754 9.54487
338 2 7.2442 14.8299 9.54939
339 2 0.195821 14.472 -0.107147
340 2 1.67404 14.1099 15.0293
341 2 6.36978 4.08066 0.330649
342 2 7.72329 4.92349 0.241991
343 2 13.5096 5.60399 10.8231
344 2 12.4665 6.83691 10.7767
345 2 6.79124 9.72076 12.754
346 2 7.32373 9.97826 14.2583
347 2 5.67064 6.47164 13.103
348 2 6.70854 8.06522 13.5018
349 2 3.89762 10.2042 6.42118
350 2 3.02153 8.97371 5.90448
351 2 0.989427 0.707417 5.12111
352 2 1.49472 2.12143 5.31354
353 2 8.78786 13.4432 1.95729
354 2 9.41054 14.1048 0.583186
355 2 2.93633 0.577582 5.94831
356 2 4.32934 -0.110085 5.29254
357 2 10.9079 8.00201 1.42944
358 2 9.53339 7.96138 1.90871
359 2 2.88295 14.728 10.433
360 2 3.74373 13.5596 11.1665
361 2 5.94547 12.5229 1.61507
362 2 6.40366 11.282 2.7532
363 2 2.42475 10.5108 14.0172
364 2 3.60807 10.4118 14.8762
365 2 11.934 3.42973 0.760963
366 2 12.7783 3.51075 2.3864
367 2 12.4853 12.8687 9.49861
368 2 12.5064 13.4325 11.1091
369 2 13.8637 6.73561 12.7344
370 2 13.1881 6.74099 14.2472
371 2 11.73 1.58708 2.11179
372 2 10.2114 1.15628 2.71536
373 2 0.949554 1.50155 0.773717
374 2 2.37922 1.24641 0.371722
375 2 7.99839 -0.0698396 7.35217
376 2 8.87413 1.08087 6.78439
377 2 12.1093 11.0179 0.689767
378 2 13.6529 10.8338 0.152378
379 2 13.7942 3.51187 9.67728
380 2 13.5417 2.97812 11.1425
381 2 12.558 3.27812 4.55618
382 2 11.682 4.39153 4.31082
383 2 5.48884 10.4301 0.946595
384 2 5.45998 9.53714 15.1892
ITEM: TIMESTEP
400
ITEM: NUMBER OF ATOMS
384
ITEM: BOX BOUNDS pp pp pp
-1.3021218416963443e-01 1.5130212184169675e+01
-1.3021218416963443e-01 1.5130212184169675e+01
-1.3021218416963443e-01 1.5130212184169675e+01
ITEM: ATOMS id type x y z
1 1 4.546 5.40804 12.669
2 1 14.5866 3.86706 14.1047
3 1 7.25455 10.7864 3.4531
4 1 1.77395 3.57494 4.46956
5 1 13.6147 9.65457 9.90543
6 1 9.41162 -0.000119017 14.9709
7 1 13.2978 9.81059 6.38983
8 1 3.43386 12.988 7.92339
9 1 3.4262 6.06086 2.4841
10 1 5.56525 7.558 2.11866
11 1 13.8081 6.68087 2.00764
12 1 0.631531 10.029 13.9968
13 1 15.1203 5.27392 4.85537
14 1 9.66492 6.40693 8.06331
15 1 12.2557 6.76946 4.47088
16 1 10.2265 2.60611 6.71384
17 1 4.6773 3.81535 10.6355
18 1 6.85819 10.5132 11.177
19 1 7.98361 2.01409 14.4405
20 1 5.8131 13.5162 0.481775
21 1 15.0813 13.3741 10.0544
22 1 12.2908 1.89896 5.68266
23 1 10.768 6.41733 13.4541
24 1 1.96478 7.98408 6.41943
25 1 10.743 9.05809 5.74784
26 1 15.0449 7.89944 4.80055
27 1 1.64001 11.2679 4.53114
28 1 5.97789 0.501936 10.4879
29 1 12.2747 7.81875 -0.00710128
30 1 1.98625 6.44928 12.0538
31 1 3.31318 5.67866 5.29612
32 1 7.46317 11.8873 7.77697
33 1 3.23585 3.40604 1.87378
34 1 3.29006 12.9164 -0.0632323
35 1 -0.0406791 4.96761 7.52938
36 1 10.5794 14.7087 7.28917
37 1 1.03051 14.2312 1.76925
38 1 5.8548 0.86989 13.083
39 1 0.409444 9.76287 2.90503
40 1 12.3081 12.9871 12.3383
41 1 1.05617 11.9244 8.20716
42 1 13.4612 13.8697 15.078
43 1 15.0525 14.8447 4.16672
44 1 8.30352 12.7425 11.8929
45 1 12.0135 5.86576 7.11899
46 1 9.71591 10.2763 7.95958
47 1 10.0934 10.9592 12.894
48 1 8.59054 12.3121 5.31415
49 1 3.70655 1.65078 13.9454
50 1 6.11539 13.4318 13.1989
51 1 4.14447 6.15186 8.72149
52 1 11.1136 0.157976 12.8829
53 1 7.37426 14.0061 3.5166
54 1 4.59294 2.16999 3.74765
55 1 12.1445 11.262 8.52235
56 1 8.87893 10.2189 0.00738326
57 1 2.05223 1.43355 8.24286
58 1 8.52178 5.24567 11.6067
59 1 0.751583 9.53646 8.75405
60 1 10.0976 10.5787 3.62896
61 1 11.576 3.86888 14.4404
62 1 10.129 7.01597 10.4918
63 1 4.68265 10.0277 9.76974
64 1 8.1773 8.06879 1.51881
65 1 13.963 7.2477 8.12512
66 1 4.87599 14.7243 3.76571
67 1 5.76478 1.73584 6.43974
68 1 1.44342 0.081522 10.3574
69 1 11.2176 12.6198 1.90031
70 1 8.78023 3.92725 9.30521
71 1 15.0208 12.6075 5.63567
72 1 4.99378 11.056 7.23152
73 1 0.793792 7.56086 14.1643
74 1 0.574333 4.21932 11.5803
75 1 15.0627 0.728417 12.597
76 1 12.3451 12.6969 6.03605
77 1 6.34697 1.07743 1.11351
78 1 5.56886 8.02541 7.51664
79 1 4.75014 3.95088 14.9577
80 1 14.5359 1.67658 0.584766
81 1 8.23784 1.21032 3.03547
82 1 10.2802 2.0514 10.5509
83 1 1.93646 4.22771 8.87265
84 1 12.3744 14.8902 4.33439
85 1 9.71037 4.52795 4.95506
86 1 8.30265 6.14308 14.7718
87 1 2.6195 2.19814 11.5878
88 1 10.1282 14.616 10.6767
89 1 14.8037 11.3192 1.00773
90 1 9.63087 3.17222 12.7051
91 1 7.67734 3.75183 3.48661
92 1 3.14839 12.6502 2.70933
93 1 13.0794 3.73531 7.96853
94 1 1.27093 7.69763 1.6566
95 1 13.202 9.84007 12.6727
96 1 6.45571 2.85614 8.96505
97 1 6.06107 4.38389 5.55766
98 1 12.8684 2.16981 12.502
99 1 8.7249 7.20012 5.76392
100 1 2.84006 8.09902 9.96399
101 1 4.2572 12.1166 11.7589
102 1 1.00189 12.1716 12.1409
103 1 6.51374 8.3811 4.65604
104 1 9.22217 9.49672 10.5964
105 1 7.67005 14.4008 8.67967
106 1 0.978655 13.9633 14.0745
107 1 7.08355 3.89969 1.0455
108 1 12.504 6.57745 11.0849
109 1 6.95509 9.4328 13.6012
110 1 6.76886 6.9591 12.8017
111 1 3.79049 9.65235 5.06611
112 1 1.43291 1.06761 5.69846
113 1 8.78896 12.9721 1.21855
114 1 3.59799 14.9882 6.28436
115 1 10.7378 8.16475 2.65563
116 1 3.86186 14.184 10.1376
117 1 5.1633 11.3432 1.79324
118 1 3.16412 10.8158 13.997
119 1 12.2213 2.94413 1.66373
120 1 12.3618 13.46 9.78491
121 1 13.7475 6.64434 13.3655
122 1 10.7551 0.756264 2.37899
123 1 1.79588 1.53934 0.884072
124 1 8.20337 0.73522 5.95169
125 1 12.331 10.4704 0.185935
126 1 13.2626 4.00821 10.5582
127 1 12.8828 4.01023 4.35216
128 1 4.7028 9.47953 0.191137
129 2 4.67122 4.88005 11.8127
130 2 4.33147 4.91712 13.4815
131 2 14.0538 4.67588 14.2538
132 2 -0.0669933 4.03401 13.4084
133 2 6.97323 9.86145 3.92915
134 2 8.21328 10.6158 3.00625
135 2 0.93305 4.11523 4.33261
136 2 2.17158 3.62887 3.41552
137 2 14.4334 9.40031 9.72396
138 2 13.3217 9.39473 10.903
139 2 9.70338 0.158925 0.619508
140 2 8.74868 0.739364 14.7316
141 2 12.9768 9.97471 7.35777
142 2 13.4794 10.6638 5.87498
143 2 3.78729 13.4381 8.83478
144 2 3.48178 13.6878 7.1984
145 2 3.42891 4.92206 2.50862
146 2 3.3064 6.3265 3.56479
147 2 5.18644 8.16201 1.62034
148 2 4.76618 6.79378 2.24392
149 2 13.5304 6.74666 2.80992
150 2 14.7149 6.81658 2.00238
151 2 0.781755 8.90599 14.1007
152 2 0.155531 10.2678 14.8167
153 2 14.2846 4.60236 4.60534
154 2 15.0345 6.27521 4.5853
155 2 10.4419 5.97411 7.74627
156 2 9.20531 6.66833 7.32244
157 2 12.0826 6.61547 5.45899
158 2 11.5848 7.48437 4.14118
159 2 9.80618 2.95507 7.49409
160 2 10.0037 3.36201 6.04055
161 2 4.14669 3.08681 10.9358
162 2 5.25209 3.39025 9.85504
163 2 7.37551 9.99706 10.7979
164 2 7.32865 11.4978 11.0828
165 2 7.68196 2.76448 15.0742
166 2 7.07688 1.69307 13.9556
167 2 6.23844 13.2014 14.9647
168 2 5.04933 13.5831 0.185017
169 2 14.0906 13.4135 9.96088
170 2 -0.065441 12.9129 11.0154
171 2 11.542 2.16751 6.24011
172 2 12.3972 1.09956 5.39477
173 2 11.225 6.21324 12.7044
174 2 11.3352 6.85439 14.1409
175 2 1.18392 8.06677 5.88704
176 2 1.7576 8.38021 7.28694
177 2 11.7404 9.2403 5.9352
178 2 10.5485 9.63838 4.91841
179 2 14.2672 8.28142 5.0439
180 2 -0.0914732 8.57477 4.02537
181 2 1.14188 11.6824 5.17225
182 2 2.22685 10.4714 4.84307
183 2 6.13503 1.27176 9.79802
184 2 5.20308 15.0515 9.91251
185 2 12.4278 8.84094 0.0358467
186 2 12.8502 7.51369 0.810478
187 2 2.3785 7.02289 11.4941
188 2 2.7233 5.85757 12.336
189 2 2.8586 6.38712 5.97371
190 2 2.83816 4.78778 5.13083
191 2 7.2905 12.777 8.22467
192 2 7.81668 12.0469 6.82507
193 2 2.56575 2.70127 1.5429
194 2 3.85237 2.734 2.39177
195 2 3.30265 11.8786 14.6754
196 2 2.97346 12.5549 0.797451
197 2 -0.030348 4.79109 6.5053
198 2 15.0969 5.82717 7.90925
199 2 10.9138 14.8794 8.10249
200 2 11.2314 14.3383 6.8226
201 2 1.7429 13.9685 2.19805
202 2 1.23556 -0.0109873 1.47709
203 2 6.14578 -0.0910396 13.0968
204 2 5.9676 0.850587 12.0441
205 2 1.02225 8.9725 2.3333
206 2 0.974048 10.4064 3.35828
207 2 11.7236 13.781 12.51
208 2 11.7282 12.1696 12.85
209 2 1.99753 12.2773 8.19791
210 2 0.722114 12.5369 8.93386
211 2 13.4427 14.9069 14.8948
212 2 13.6866 13.4936 14.181
213 2 14.0553 14.8481 3.9131
214 2 0.120051 14.6192 3.16677
215 2 8.73304 13.4298 11.3177
216 2 8.95035 12.1957 12.3089
217 2 12.5622 6.39999 7.79239