ITEM: TIMESTEP
0
ITEM: NUMBER OF ATOMS
384
ITEM: BOX BOUNDS pp pp pp
-3.1180958401302572e-01 1.5311809584013066e+01
-3.1180958401302572e-01 1.5311809584013066e+01
-3.1180958401302572e-01 1.5311809584013066e+01
ITEM: ATOMS id type x y z
1 1 4.57679 5.50123 13.6944
2 1 14.8875 3.66367 14.1079
3 1 8.20115 10.8513 3.91518
4 1 1.55859 4.11103 4.68534
5 1 14.0046 11.0534 10.4291
6 1 10.1562 -0.0244194 -0.0179537
7 1 13.1461 9.78511 5.92123
8 1 3.48566 13.6848 7.87681
9 1 3.32305 6.30373 3.20589
10 1 5.30735 8.37688 2.36991
11 1 13.7801 6.32188 1.70807
12 1 0.692367 10.1945 14.1186
13 1 15.0627 5.43363 4.6639
14 1 9.98456 5.97612 7.92121
15 1 12.4056 7.19481 3.96576
16 1 9.83562 2.64919 6.79506
17 1 4.60459 4.17249 11.4106
18 1 7.55062 10.3381 11.1669
19 1 8.27543 1.89543 14.4455
20 1 5.83253 14.0038 0.549654
21 1 -0.277952 13.5963 10.2649
22 1 12.6457 2.09652 6.28487
23 1 10.7129 7.40871 14.2399
24 1 2.2119 7.88472 6.40809
25 1 10.4542 9.69036 5.97773
26 1 -0.282536 8.22967 4.81222
27 1 1.6652 11.2607 4.20606
28 1 6.17365 -0.094545 10.725
29 1 12.1932 8.4542 0.381712
30 1 2.29814 6.67565 12.652
31 1 3.74006 5.65533 5.77839
32 1 7.64075 12.3667 7.75101
33 1 2.57949 3.81144 2.08856
34 1 3.31976 13.3432 0.0677147
35 1 -0.0967938 5.37115 7.46928
36 1 11.1426 14.5448 7.59235
37 1 1.26174 14.8074 2.57217
38 1 6.41618 0.335516 13.3898
39 1 0.207637 9.92258 2.18818
40 1 12.6731 13.1901 12.8323
41 1 1.29363 11.9761 7.9846
42 1 13.2286 14.8362 0.439531
43 1 -0.123887 15.1905 5.01064
44 1 8.80795 12.7708 12.0788
45 1 12.4172 6.75949 6.79319
46 1 9.49869 10.6014 8.40823
47 1 10.544 10.9934 13.3575
48 1 8.99001 12.8372 5.44675
49 1 4.04829 1.51716 14.6149
50 1 6.69928 13.1999 13.7041
51 1 4.43379 6.10378 9.26553
52 1 11.4216 -0.0969869 13.0672
53 1 8.10878 14.4288 3.40524
54 1 4.3962 2.37166 3.28729
55 1 12.1316 11.4523 8.45349
56 1 8.7458 10.8517 -0.213292
57 1 1.53862 1.7361 8.48855
58 1 8.69585 5.89847 11.616
59 1 1.22107 9.19196 8.49846
60 1 10.635 10.5731 3.14594
61 1 11.4957 4.51089 15.2148
62 1 10.9209 6.7156 10.446
63 1 4.94638 10.4223 10.3546
64 1 7.94749 8.55464 1.09697
65 1 14.5919 7.80968 8.4877
66 1 5.26248 14.7619 3.62401
67 1 5.62202 2.26942 6.97039
68 1 1.29568 -0.0251437 10.348
69 1 11.6689 12.7598 1.5126
70 1 8.10674 4.34492 9.29769
71 1 15.2574 12.5827 5.71394
72 1 5.13758 11.4238 7.95676
73 1 0.807368 7.59384 14.5622
74 1 1.07308 4.35508 11.6836
75 1 -0.103901 0.899318 12.6958
76 1 12.4336 12.7126 5.99741
77 1 6.5124 0.898083 1.44852
78 1 5.22926 7.74021 7.34722
79 1 4.69818 3.85809 0.25821
80 1 14.6318 1.53081 0.260033
81 1 8.7843 1.26425 2.88569
82 1 10.1715 2.86217 10.2074
83 1 1.97586 4.56417 8.94346
84 1 12.6683 15.2799 4.82665
85 1 10.1623 4.44247 4.67024
86 1 8.26116 6.29332 15.2182
87 1 2.75694 2.33071 12.3211
88 1 10.1168 15.0402 10.6766
89 1 0.0214213 11.8389 0.424274
90 1 9.92368 3.73613 12.9889
91 1 7.93039 3.8304 3.09944
92 1 3.45334 12.7245 2.72154
93 1 13.7442 3.34545 8.32257
94 1 1.06378 7.50528 1.70711
95 1 13.5608 9.51663 12.896
96 1 6.16563 2.34739 9.6158
97 1 6.00658 4.12469 4.96415
98 1 13.0409 2.11594 12.6389
99 1 9.44842 7.22402 5.61094
100 1 3.08802 8.31472 10.412
101 1 4.27645 12.564 12.0172
102 1 0.247817 12.7339 12.6695
103 1 6.92237 8.32243 4.80264
104 1 10.2096 9.4039 11.0142
105 1 8.10819 14.6608 9.11245
106 1 0.724807 14.5893 14.8093
107 1 7.38606 3.87893 0.612739
108 1 13.59 6.17467 11.3541
109 1 6.57455 9.82429 14.0409
110 1 6.72525 7.05567 13.1783
111 1 3.66994 10.3273 5.96103
112 1 1.66543 1.60839 5.77048
113 1 9.05834 13.0173 1.11863
114 1 4.11235 0.213829 6.02437
115 1 10.3679 8.11545 2.36753
116 1 3.8208 14.5044 10.4834
117 1 6.27696 11.8524 2.07137
118 1 3.1417 11.1769 14.1451
119 1 12.971 3.21476 1.56998
120 1 12.4061 13.5738 10.1924
121 1 14.0948 6.56232 13.8874
122 1 11.4172 0.689063 2.37021
123 1 1.65778 1.52802 1.12949
124 1 7.74882 0.714644 6.86752
125 1 13.0368 10.8806 0.0461404
126 1 14.1536 3.59273 10.8941
127 1 12.9937 3.74289 4.44237
128 1 4.93288 10.2326 0.481908
129 2 4.52916 4.87676 12.9369
130 2 4.69703 5.06241 14.547
131 2 14.6886 4.58995 14.3163
132 2 0.0945933 3.63697 13.6264
133 2 7.74221 10.0755 4.24889
134 2 8.99342 10.7228 3.34745
135 2 0.788771 4.72927 4.53377
136 2 1.81069 3.95163 3.77685
137 2 14.4008 11.9252 10.4575
138 2 13.9069 10.7269 11.3647
139 2 10.6725 0.201823 0.765773
140 2 9.47367 0.652849 -0.0632908
141 2 13.5922 9.97565 6.76473
142 2 13.2152 10.5455 5.32572
143 2 3.67781 14.0964 8.7488
144 2 3.53939 14.3835 7.27865
145 2 3.09567 5.45978 2.78243
146 2 3.60518 6.19337 4.09913
147 2 5.08995 9.05489 1.76222
148 2 4.54185 7.79795 2.5309
149 2 13.4381 6.67871 2.59019
150 2 14.7355 6.25337 1.79471
151 2 0.77524 9.18308 14.2443
152 2 0.388115 10.6288 14.9234
153 2 14.1894 4.91997 4.56536
154 2 14.9228 6.4107 4.60147
155 2 10.8762 5.93786 7.61697
156 2 9.58879 6.53361 7.20672
157 2 12.1014 7.06547 4.8105
158 2 11.5829 7.27566 3.48345
159 2 9.70669 3.06202 7.62541
160 2 9.96186 3.35305 6.0781
161 2 3.89127 3.51534 11.556
162 2 5.31618 3.63484 11.0911
163 2 8.36256 9.80951 10.99
164 2 7.91946 11.2623 11.3115
165 2 7.80256 2.56448 14.9346
166 2 7.58248 1.21916 14.1315
167 2 6.10462 13.5421 -0.242407
168 2 4.85977 13.825 0.528199
169 2 14.4101 13.8153 10.1623
170 2 -0.0704958 13.4422 11.1966
171 2 11.7088 2.1063 6.54679
172 2 12.6961 1.18401 5.89058
173 2 10.9921 7.5299 13.3514
174 2 11.2636 8.01166 14.7268
175 2 1.57728 7.89927 5.7134
176 2 1.87051 8.36741 7.16573
177 2 11.4302 9.71213 6.20698
178 2 10.3486 10.1292 5.1128
179 2 14.4149 8.445 5.04536
180 2 0.00164071 8.8165 4.03796
181 2 1.02838 11.8189 4.67407
182 2 2.36173 10.8675 4.79517
183 2 6.32838 0.734699 10.265
184 2 5.21972 -0.301306 10.6492
185 2 12.568 9.37229 0.310345
186 2 12.8634 7.95827 0.824663
187 2 2.56428 7.41349 12.0109
188 2 3.14156 6.4193 13.0935
189 2 3.16723 6.41343 5.9805
190 2 3.10221 4.98312 5.63197
191 2 7.73547 13.1577 8.33842
192 2 8.06104 12.6116 6.87934
193 2 1.75422 3.38105 1.7562
194 2 3.25148 3.1727 2.47226
195 2 3.15037 12.6412 14.9757
196 2 3.16776 12.9566 0.983888
197 2 0.0720948 5.37286 6.52711
198 2 -0.245356 6.34024 7.61737
199 2 11.6512 14.8569 8.35832
200 2 11.802 13.9131 7.23812
201 2 2.07792 14.3411 2.56175
202 2 1.50629 0.044002 2.08403
203 2 6.3968 14.9261 13.4491
204 2 6.20534 0.425411 12.4267
205 2 0.660795 9.1318 1.85703
206 2 0.694078 10.391 2.87312
207 2 12.3708 14.0972 13.0916
208 2 12.1841 12.5232 13.366
209 2 2.09163 12.5603 7.87369
210 2 0.901668 12.2269 8.80367
211 2 13.6981 0.109016 0.335681
212 2 13.4443 14.3386 15.279
213 2 14.5376 15.2076 4.93591
214 2 0.228484 14.9795 4.13145
215 2 9.24837 13.4527 11.622
216 2 9.52013 12.2417 12.5392
217 2 12.875 7.30125 7.44426
218 2 13.1287 6.09272 6.70831
219 2 8.70364 11.2231 8.31889
220 2 9.67729 10.2938 7.51515
221 2 10.4955 10.2933 12.7118
222 2 10.0325 10.7711 14.1408
223 2 9.87115 13.0955 5.5737
224 2 8.95145 12.0108 4.93614
225 2 4.74251 0.928236 14.2575
226 2 3.48888 1.81195 13.8977
227 2 7.56401 13.1017 13.1985
228 2 6.02622 12.6782 13.2435
229 2 3.65548 5.64787 8.88705
230 2 4.53028 5.65688 10.1121
231 2 10.7483 -0.0654962 13.7661
232 2 11.7812 0.808853 13.0779
233 2 8.36482 -0.291862 3.46612
234 2 8.34757 14.0066 4.25098
235 2 5.1094 1.81781 2.95108
236 2 4.6411 2.96006 4.03817
237 2 12.5339 11.0417 9.22128
238 2 11.1841 11.2095 8.49369
239 2 8.60742 10.312 0.576946
240 2 8.69537 11.7883 0.0583599
241 2 1.42282 1.68337 7.50469
242 2 1.60998 2.65673 8.73322
243 2 8.87953 5.11923 12.1645
244 2 8.03029 6.40716 12.1505
245 2 1.95332 8.95172 9.16853
246 2 1.28006 10.1574 8.3047
247 2 11.2632 11.2403 2.79611
248 2 10.7957 9.70539 2.72449
249 2 11.5653 5.40273 -0.288322
250 2 11.1896 4.32648 14.2564
251 2 10.4204 6.65681 9.62663
252 2 10.2607 6.46258 11.0571
253 2 5.87632 10.1769 10.5904
254 2 4.94364 10.8143 9.46912
255 2 7.91802 7.6928 0.604333
256 2 7.17835 8.74025 1.63464
257 2 14.2008 7.92642 9.35992
258 2 -0.267797 8.44072 8.55252
259 2 6.16366 14.3915 3.8125
260 2 4.75946 14.0077 3.26281
261 2 6.35085 1.60272 6.90857
262 2 4.84301 1.75402 6.76165
263 2 1.34137 0.662419 9.62968
264 2 0.817817 14.7755 10.0578
265 2 10.8342 13.0339 1.10914
266 2 12.2496 13.5788 1.43103
267 2 7.99168 4.93257 10.0429
268 2 8.59208 4.87508 8.55834
269 2 -0.0863874 13.5026 5.64494
270 2 0.00602987 12.1735 6.56287
271 2 6.0476 11.6847 7.84187
272 2 4.65027 12.2574 7.8746
273 2 -0.10786 7.21382 14.4417
274 2 1.40859 7.20909 13.8607
275 2 1.10879 5.19843 12.1297
276 2 0.142322 4.18446 11.4107
277 2 0.192301 0.569522 11.8253
278 2 0.262058 0.216297 13.3227
279 2 13.325 12.966 5.76917
280 2 12.474 12.1815 6.79075
281 2 6.96454 1.33987 0.72514
282 2 6.22808 -0.0168944 1.14781
283 2 5.28424 6.95392 7.95734
284 2 5.69738 8.44349 7.79401
285 2 4.59695 2.96295 -0.156096
286 2 4.05776 3.8329 1.0606
287 2 14.2623 2.20361 0.861912
288 2 14.7961 2.02476 15.1013
289 2 7.90736 0.984376 2.41964
290 2 8.42535 2.08554 3.23522
291 2 9.33834 3.30929 9.83257
292 2 10.1754 1.88055 10.1119
293 2 1.75381 4.52695 9.90946
294 2 1.11552 4.78978 8.54253
295 2 12.2645 0.0873025 4.07993
296 2 12.0334 14.6435 5.15054
297 2 9.97133 5.30379 5.02216
298 2 9.51596 4.30903 3.95105
299 2 9.11176 6.41377 14.7882
300 2 7.57568 6.54 14.599
301 2 2.07189 2.92609 11.9449
302 2 2.69894 1.52435 11.845
303 2 10.8501 14.3815 10.4642
304 2 10.5118 -0.206863 11.478
305 2 0.274248 12.7719 0.61942
306 2 0.108425 11.2293 1.22179
307 2 9.70727 2.84376 13.3266
308 2 10.3129 3.49932 12.1129
309 2 7.16744 3.93944 3.6373
310 2 7.68964 3.77425 2.12389
311 2 2.7812 12.2345 3.34142
312 2 4.17512 12.108 2.65722
313 2 13.4252 2.63657 7.76521
314 2 14.4885 3.85196 7.85505
315 2 1.16553 7.50623 0.684607
316 2 1.80702 6.9489 2.01705
317 2 14.4305 9.58843 13.243
318 2 13.0187 10.0336 13.4694
319 2 5.70123 2.57075 8.68482
320 2 6.80813 3.05178 9.52933
321 2 5.35787 4.80808 5.12533
322 2 5.96938 3.53575 5.71789
323 2 13.0854 2.74416 13.3668
324 2 13.871 1.59988 12.7008
325 2 8.54415 7.16809 5.28465
326 2 9.76316 8.11779 5.62097
327 2 3.5805 7.58031 10.0651
328 2 3.76188 9.05652 10.3377
329 2 4.55808 11.8882 11.3243
330 2 3.56374 12.075 12.5347
331 2 0.334551 11.7965 12.6005
332 2 0.24849 12.8839 13.5924
333 2 6.35726 8.22802 5.65351
334 2 6.38531 8.12785 4.02112
335 2 10.214 9.5859 10.0692
336 2 10.6644 8.57403 11.1276
337 2 8.95214 14.8857 9.64428
338 2 7.3584 14.7538 9.70982
339 2 0.591563 15.0693 0.0182509
340 2 1.70203 14.3696 14.7724
341 2 6.4741 3.89198 0.306924
342 2 7.8908 4.74294 0.474307
343 2 13.7745 5.25403 11.174
344 2 12.6407 6.3597 11.1641
345 2 6.61181 10.3071 13.1711
346 2 7.38294 10.2018 14.4287
347 2 5.92965 6.53312 13.3142
348 2 6.65131 8.00804 13.4902
349 2 4.1508 10.9057 6.58172
350 2 3.72612 9.43762 6.27968
351 2 0.960879 1.05271 5.33877
352 2 1.48012 2.49213 5.40543
353 2 8.71011 13.4532 1.93204
354 2 8.99593 13.78 0.520382
355 2 3.28533 0.709593 5.89467
356 2 4.52263 -0.105961 5.1872
357 2 10.8957 8.12501 1.5533
358 2 9.392 8.09909 2.00114
359 2 2.85608 14.8006 10.6062
360 2 3.90293 13.7417 11.0449
361 2 6.48734 12.6937 1.54518
362 2 7.04029 11.6822 2.67807
363 2 2.24681 10.7375 14.3261
364 2 3.668 10.6767 14.8241
365 2 12.3482 3.69431 0.972113
366 2 13.2921 3.83378 2.19605
367 2 12.5073 12.8061 9.60602
368 2 12.5354 13.311 11.1419
369 2 13.9506 6.55755 12.8999
370 2 13.4462 7.1125 14.3857
371 2 11.8334 1.45816 2.05064
372 2 10.4376 0.894116 2.52875
373 2 0.844146 1.54638 0.605455
374 2 2.39804 1.38307 0.478242
375 2 7.77884 0.12269 7.66547
376 2 8.60235 1.23456 6.91956
377 2 12.4122 11.5105 0.551261
378 2 13.9301 11.2794 0.187093
379 2 13.8259 3.47873 9.96028
380 2 13.5184 3.1733 11.5056
381 2 12.9666 3.11167 5.2382
382 2 12.0906 4.05916 4.29522
383 2 5.48443 10.7696 1.07083
384 2 5.47524 10.05 -0.286949
ITEM: TIMESTEP
200
ITEM: NUMBER OF ATOMS
384
ITEM: BOX BOUNDS pp pp pp
-2.1868351273538700e-01 1.5218683512735430e+01
-2.1868351273538700e-01 1.5218683512735430e+01
-2.1868351273538700e-01 1.5218683512735430e+01
ITEM: ATOMS id type x y z
1 1 4.51821 5.63665 13.1211
2 1 14.5209 3.91494 13.9253
3 1 7.56566 10.6371 3.84062
4 1 1.72663 3.76094 4.59399
5 1 13.6914 10.167 10.3095
6 1 9.99083 0.215505 -0.0841645
7 1 13.3116 9.63968 6.03144
8 1 3.32048 13.5658 7.55758
9 1 3.15451 6.45029 2.8026
10 1 5.58647 7.86803 2.5556
11 1 13.7643 6.57439 1.81333
12 1 0.57031 10.0441 13.8185
13 1 14.9216 5.4772 4.86866
14 1 9.91948 5.93934 7.93869
15 1 12.1986 7.02461 4.0119
16 1 9.96114 2.72068 6.75822
17 1 4.7226 3.89659 11.165
18 1 7.30602 10.4182 11.3192
19 1 8.34306 1.98602 14.4226
20 1 5.76734 13.9368 0.588637
21 1 -0.131648 13.3163 10.0327
22 1 12.5253 1.86881 6.26084
23 1 10.6473 7.14434 14.2204
24 1 1.93728 7.87172 6.34885
25 1 10.3983 9.2437 5.80498
26 1 15.1006 8.17671 4.7394
27 1 1.8049 11.4197 4.39143
28 1 5.94957 0.365075 10.5609
29 1 12.2523 8.01234 0.381978
30 1 2.15871 6.5928 12.332
31 1 3.54767 5.72821 5.32911
32 1 7.69325 11.9332 7.84407
33 1 3.21603 3.55608 2.21637
34 1 2.99115 13.2898 0.157089
35 1 0.000720881 5.26753 7.59533
36 1 10.6255 14.5324 7.36867
37 1 1.21596 14.5196 2.29952
38 1 6.09315 0.409807 13.3145
39 1 0.396454 9.87819 2.72956
40 1 12.2644 13.0885 12.5568
41 1 0.906793 12.2827 8.06214
42 1 13.5592 14.2603 0.221834
43 1 -0.0731511 14.9108 4.49621
44 1 8.52327 12.7709 11.8168
45 1 12.5422 6.30837 6.83981
46 1 9.66357 10.2897 8.16699
47 1 10.3915 11.0228 12.8158
48 1 8.79748 12.3798 5.42349
49 1 3.96316 1.68925 14.1886
50 1 6.48761 13.2258 13.4276
51 1 4.09719 5.9659 9.29918
52 1 11.2148 -0.0213114 13.1247
53 1 7.57829 14.2369 3.56457
54 1 4.73856 2.06033 3.56953
55 1 12.2614 11.217 8.35937
56 1 8.86427 10.5512 -0.172058
57 1 1.73886 1.71362 8.34694
58 1 8.5183 5.6001 11.5121
59 1 1.20174 9.11228 8.49922
60 1 10.4441 10.4404 3.34844
61 1 11.5803 4.35335 14.8693
62 1 10.4661 6.92045 10.4904
63 1 4.89197 10.1973 10.0915
64 1 7.92098 8.06564 1.33575
65 1 14.342 7.5382 8.6564
66 1 4.88764 14.7466 3.74465
67 1 5.77173 1.92463 6.89245
68 1 1.34001 0.459171 10.3537
69 1 11.4391 12.504 1.69931
70 1 8.29873 4.27807 9.34762
71 1 15.1723 12.6055 5.68051
72 1 4.93546 11.2843 7.57936
73 1 0.908325 7.47112 14.3804
74 1 1.07708 4.23227 11.7703
75 1 -0.0748706 0.564935 12.762
76 1 12.395 12.5456 6.04152
77 1 6.19255 1.01306 1.42141
78 1 5.53295 8.04264 7.05282
79 1 4.65904 3.98084 15.2177
80 1 14.5249 1.7441 0.271786
81 1 8.5516 1.28828 2.66809
82 1 10.1516 2.59562 10.2061
83 1 1.85793 4.38944 8.91922
84 1 12.6737 15.0781 4.24381
85 1 10.2126 4.83013 4.90902
86 1 8.33449 6.26743 14.8815
87 1 2.75951 2.23113 12.0687
88 1 9.92655 14.6994 10.7357
89 1 -0.189563 11.2665 0.715443
90 1 9.66008 3.56386 12.7572
91 1 7.9006 3.8719 3.57341
92 1 3.31803 12.6966 2.67986
93 1 13.4199 3.52393 8.15922
94 1 0.830228 7.55505 1.71945
95 1 13.4166 10.0229 12.7875
96 1 6.15776 2.73052 9.34098
97 1 5.87013 3.83742 5.14482
98 1 13.0615 1.88338 12.7067
99 1 8.97449 7.04503 5.4258
100 1 3.08633 8.1972 10.2871
101 1 4.36785 12.2527 12.0493
102 1 0.554202 12.723 12.4326
103 1 6.77443 8.51848 4.75611
104 1 9.70943 9.49306 10.7539
105 1 7.91787 14.5142 8.97172
106 1 0.810322 14.354 14.5278
107 1 7.39416 3.98002 0.286811
108 1 13.3955 6.62588 10.8545
109 1 6.6257 9.55776 13.635
110 1 6.75945 6.89971 13.0455
111 1 3.53568 9.79635 5.64193
112 1 1.48101 1.23835 5.72068
113 1 9.10978 13.2647 1.06783
114 1 3.95149 0.211507 6.15939
115 1 10.4133 8.08083 2.27953
116 1 3.73013 14.2025 10.3313
117 1 5.67125 11.5744 2.2276
118 1 3.22827 11.0528 14.1973
119 1 12.3379 2.91723 1.55244
120 1 12.5097 13.6719 10.129
121 1 13.9449 6.51729 13.6175
122 1 11.1551 0.87669 2.47318
123 1 1.83434 1.39529 1.03729
124 1 8.01725 0.712888 6.63178
125 1 12.6919 10.6791 -0.205386
126 1 14.0248 3.77959 10.7727
127 1 12.5389 4.15474 4.06322
128 1 4.90151 9.7153 0.426205
129 2 4.69432 4.95273 12.3366
130 2 4.33255 5.0097 14.1262
131 2 14.1287 4.90322 13.9774
132 2 -0.0522913 3.89483 13.4224
133 2 7.29537 9.78269 4.33146
134 2 8.62222 10.3985 3.43715
135 2 0.966889 4.25058 4.51391
136 2 2.34965 3.72901 3.85112
137 2 14.4332 10.8407 10.1321
138 2 13.4829 10.2436 11.3414
139 2 10.4858 0.620645 0.791002
140 2 9.20047 0.709024 14.9352
141 2 13.4933 9.72356 7.11722
142 2 13.3774 10.5842 5.79218
143 2 3.53955 14.0912 8.50024
144 2 3.5707 14.0652 6.76617
145 2 3.12721 5.73911 2.23446
146 2 3.35957 6.21984 3.78187
147 2 5.34138 8.57153 1.85803
148 2 4.9828 7.23159 2.67608
149 2 13.4018 6.52541 2.74957
150 2 14.6504 6.93097 2.06782
151 2 0.868889 9.12034 13.7583
152 2 0.349151 10.3336 14.7499
153 2 13.9665 5.12304 4.62521
154 2 14.9619 6.45855 4.5545
155 2 10.8301 5.94198 7.49733
156 2 9.43783 6.51426 7.24993
157 2 12.4409 7.19017 4.83456
158 2 11.6503 7.87186 3.9325
159 2 9.56152 3.07779 7.59001
160 2 9.91513 3.59565 6.41017
161 2 4.17086 3.04992 11.4537
162 2 5.54703 3.45632 10.6779
163 2 8.27418 9.9731 11.0266
164 2 7.70977 11.4213 11.2963
165 2 8.03553 2.81261 15.029
166 2 7.47888 1.55282 13.8555
167 2 6.14627 13.6859 15.016
168 2 4.89593 13.8624 0.32738
169 2 14.353 13.6437 9.87726
170 2 0.0982619 13.1677 10.9991
171 2 11.489 1.98277 6.57371
172 2 12.3571 0.987924 5.78531
173 2 10.7529 7.50788 13.4013
174 2 11.2245 7.67406 14.897
175 2 1.15896 7.76438 5.77333
176 2 1.56552 8.42016 6.99547
177 2 11.4893 9.05238 5.82061
178 2 10.4852 9.86422 5.11213
179 2 14.4598 8.86571 5.31764
180 2 0.237122 8.60684 4.01083
181 2 1.09553 11.923 4.94322
182 2 2.6355 10.9873 4.9274
183 2 6.1309 1.07787 9.91802
184 2 5.08557 -0.0199685 10.3643
185 2 12.2901 9.06675 0.115058
186 2 12.9489 7.29062 0.85136
187 2 2.32609 7.16759 11.5805
188 2 3.13206 6.25952 12.6994
189 2 3.00679 6.3054 5.69705
190 2 2.99569 4.95834 5.25114
191 2 7.50226 12.6351 8.29172
192 2 7.99597 12.4297 6.80719
193 2 2.68817 3.01931 1.65175
194 2 3.75091 3.06045 2.81524
195 2 3.06947 12.4588 15.1409
196 2 2.87233 13.0054 1.13684
197 2 -0.187261 5.49744 6.54874
198 2 14.971 6.03696 7.94015
199 2 11.2089 -0.117194 7.63706
200 2 11.3255 13.9539 6.99856
201 2 2.04549 13.9917 2.47585
202 2 1.39497 -0.0786869 1.74546
203 2 6.31267 14.8147 13.3037
204 2 5.88443 0.400115 12.4549
205 2 0.865839 9.27064 2.29368
206 2 0.913113 10.406 3.44615
207 2 11.6693 13.8896 12.6578
208 2 11.6768 12.2483 12.7071
209 2 1.70303 12.912 7.95935
210 2 0.412807 12.7074 8.8277
211 2 13.1996 15.205 0.393412
212 2 13.5853 14.1625 14.7161
213 2 14.3834 -0.127076 4.48128
214 2 0.394116 14.6977 3.54348
215 2 9.01657 13.2183 11.2085
216 2 9.2006 12.3799 12.2164
217 2 12.99 6.8231 7.5713
218 2 12.7316 5.34482 6.67262
219 2 8.81572 11.0205 8.21286
220 2 10.0035 9.95233 7.31791
221 2 10.1641 10.2263 12.0386
222 2 9.84602 10.5366 13.6531
223 2 9.78146 12.1062 5.34502
224 2 8.4455 11.7616 4.85127
225 2 4.72006 1.08985 13.8371
226 2 3.35405 1.93035 13.3861
227 2 7.34048 13.0028 12.9661
228 2 5.75293 12.985 12.9521
229 2 3.41578 5.31472 9.17865
230 2 4.71101 5.51901 10.0233
231 2 10.9434 0.057982 14.1424
232 2 12.0316 0.739693 12.9489
233 2 8.10948 15.1137 3.44431
234 2 7.95011 13.6032 4.26561
235 2 5.21 1.698 2.80796
236 2 5.36427 2.71532 3.96243
237 2 12.7065 10.7856 9.21125
238 2 11.3863 10.7514 8.3721
239 2 8.46554 9.80978 0.40703
240 2 8.82209 11.3727 0.394481
241 2 1.50331 1.53119 7.3472
242 2 1.6138 2.74453 8.46223
243 2 8.97668 4.88831 12.0153
244 2 7.74203 6.16675 12.0079
245 2 1.62773 8.78626 9.37498
246 2 1.3436 10.2015 8.47057
247 2 10.8855 11.1797 2.91954
248 2 10.6772 9.6417 2.84122
249 2 11.1444 5.13342 14.8388
250 2 10.9921 3.93934 13.9422
251 2 10.4482 6.34578 9.65662
252 2 9.65268 6.29146 10.9798
253 2 5.91857 9.91808 10.2207
254 2 5.03196 10.5885 9.15463
255 2 7.99981 7.29432 0.6571
256 2 7.10025 8.05944 2.037
257 2 13.9146 7.0244 9.48685
258 2 15.0819 8.05812 8.99829
259 2 5.79616 14.4346 3.83409
260 2 4.37076 13.9069 3.32874
261 2 6.58888 1.45353 6.7222
262 2 4.9214 1.40661 6.78544
263 2 1.25329 0.97169 9.4293
264 2 0.633366 15.0986 10.1684
265 2 10.7225 12.9268 1.35483
266 2 12.1682 12.956 1.75576
267 2 8.11835 4.72936 10.2378
268 2 8.67368 5.07424 8.71677
269 2 -0.136014 13.511 5.26583
270 2 0.280541 12.5052 6.59301
271 2 5.77025 11.4084 7.48779
272 2 4.46531 12.1745 7.77111
273 2 -0.0267016 7.23676 13.9893
274 2 1.44837 7.16967 13.66
275 2 1.36509 5.25407 11.9209
276 2 0.267342 4.26538 11.3016
277 2 0.207961 0.90462 11.8896
278 2 0.712434 0.387771 13.2955
279 2 13.4699 12.7388 5.83264
280 2 12.3757 11.9364 6.76769
281 2 6.23449 1.59677 0.628327
282 2 5.98727 0.0502844 1.30897
283 2 5.03278 7.15462 7.10188
284 2 4.89249 8.73687 7.29109
285 2 4.36611 3.07191 14.5748
286 2 4.138 3.97422 0.668367
287 2 13.8605 2.2017 0.838909
288 2 14.8094 2.39332 15.1098
289 2 7.77824 1.22565 1.89461
290 2 8.11446 2.23456 3.07548
291 2 9.4559 3.15432 9.52382
292 2 10.3697 1.66224 10.1439
293 2 1.4018 4.48117 9.64909
294 2 1.1796 4.85437 8.15146
295 2 12.1665 -0.160942 3.4611
296 2 12.3005 14.3351 4.61847
297 2 9.84089 5.92796 5.1441
298 2 9.5192 4.35024 4.25455
299 2 8.97424 6.76592 14.4736
300 2 7.52448 6.26599 14.1194
301 2 1.9917 2.84545 11.9288
302 2 2.52047 1.55425 11.516
303 2 10.9722 14.3017 10.5025
304 2 10.223 15.2019 11.6933
305 2 -0.18011 12.2894 0.889498
306 2 -0.167337 10.8984 1.61703
307 2 9.11049 2.51628 13.0062
308 2 10.137 3.31116 12.0248
309 2 6.96897 4.04629 4.09652
310 2 7.71399 4.38701 2.606
311 2 2.76808 12.2552 3.50569
312 2 4.23742 12.0775 2.60391
313 2 13.3428 2.81071 7.53124
314 2 14.2342 3.98053 7.96534
315 2 0.720262 7.40338 0.769736
316 2 1.63106 7.16216 2.2345
317 2 14.4043 9.99143 12.7941
318 2 12.9403 10.4862 13.508
319 2 5.89929 2.54058 8.48449
320 2 7.03708 3.14947 9.12928
321 2 4.96144 4.52984 5.33114
322 2 5.7012 3.15518 5.91209
323 2 13.139 2.47502 13.4601
324 2 13.9152 1.1461 12.7564
325 2 8.03524 7.2835 5.02151
326 2 9.47705 7.87861 5.58448
327 2 3.44422 7.21312 10.0158
328 2 3.79256 8.81297 10.1146
329 2 4.59028 11.6329 11.1992
330 2 4.10362 11.6852 12.7668
331 2 0.294414 11.8226 12.8417
332 2 0.482875 13.3856 13.1568
333 2 6.17673 8.25058 5.56205
334 2 6.24797 8.3219 4.0173
335 2 9.78895 9.67642 9.66053
336 2 10.1965 8.65215 10.7467
337 2 8.58458 14.7811 9.54043
338 2 7.2245 14.8203 9.60003
339 2 0.195259 14.5541 15.1516
340 2 1.73477 14.054 15.1026
341 2 6.34188 4.06292 0.355349
342 2 7.74255 4.83533 0.20927
343 2 13.5847 5.69816 10.7825
344 2 12.4121 6.8309 10.7842
345 2 6.73171 9.8074 12.6524
346 2 7.34148 9.94395 14.2747
347 2 5.62864 6.43482 13.058
348 2 6.71165 8.04946 13.5313
349 2 3.87455 10.1465 6.44017
350 2 2.97008 8.97426 5.8887
351 2 1.04363 0.601113 5.14769
352 2 1.38413 2.08048 5.32463
353 2 8.88624 13.5171 2.01891
354 2 9.4161 14.0502 0.594695
355 2 2.99406 0.600597 5.87585
356 2 4.27513 -0.0983947 5.26484
357 2 10.9875 7.99457 1.33643
358 2 9.53445 7.93359 1.83073
359 2 2.98881 14.7064 10.4731
360 2 3.85736 13.5063 11.2481
361 2 5.88329 12.5052 1.52731
362 2 6.44817 11.3049 2.6074
363 2 2.50438 10.612 13.969
364 2 3.63637 10.3819 14.9202
365 2 11.9465 3.48476 0.843422
366 2 12.7531 3.49242 2.31643
367 2 12.4939 12.9691 9.55845
368 2 12.4165 13.3251 11.0613
369 2 13.8412 6.75371 12.7668
370 2 13.1457 6.68014 14.2921
371 2 11.7918 1.58194 2.19542
372 2 10.177 1.22598 2.59998
373 2 0.948229 1.55151 0.677672
374 2 2.35939 1.29012 0.306678
375 2 8.04735 0.0500367 7.25866
376 2 8.87601 1.12279 6.80709
377 2 12.0851 11.1476 0.676019
378 2 13.6523 10.8687 0.104955
379 2 13.8576 3.50757 9.65339
380 2 13.5981 3.00423 11.253
381 2 12.663 3.2729 4.51245
382 2 11.5169 4.40276 4.29076
383 2 5.49749 10.4691 0.970946
384 2 5.47392 9.56253 -0.172747
ITEM: TIMESTEP
400
ITEM: NUMBER OF ATOMS
384
ITEM: BOX BOUNDS pp pp pp
-1.3021218416963443e-01 1.5130212184169675e+01
-1.3021218416963443e-01 1.5130212184169675e+01
-1.3021218416963443e-01 1.5130212184169675e+01
ITEM: ATOMS id type x y z
1 1 4.56062 5.38982 12.6594
2 1 14.6013 3.86039 14.1107
3 1 7.27471 10.7961 3.45505
4 1 1.78471 3.55631 4.47019
5 1 13.5901 9.66659 9.9159
6 1 9.42544 0.0190192 15.0014
7 1 13.2883 9.83383 6.39331
8 1 3.43088 13.0002 7.92848
9 1 3.44684 6.06094 2.48
10 1 5.58674 7.5887 2.14162
11 1 13.8084 6.68036 2.00926
12 1 0.575823 10.0559 13.9691
13 1 -0.12292 5.24702 4.85165
14 1 9.66727 6.38452 8.06065
15 1 12.2454 6.77173 4.46125
16 1 10.2256 2.62287 6.73071
17 1 4.67247 3.82074 10.6387
18 1 6.85681 10.4964 11.1814
19 1 7.96213 2.00912 14.4465
20 1 5.80829 13.498 0.470772
21 1 15.0825 13.3828 10.0467
22 1 12.2761 1.8985 5.6396
23 1 10.7985 6.39554 13.4297
24 1 1.96411 7.98943 6.41456
25 1 10.7194 9.06106 5.71421
26 1 15.0651 7.91938 4.80062
27 1 1.6783 11.2514 4.50081
28 1 5.97589 0.520887 10.4792
29 1 12.2906 7.81676 0.0105781
30 1 1.98472 6.4456 12.0607
31 1 3.31125 5.65373 5.28689
32 1 7.47653 11.8785 7.76346
33 1 3.21367 3.40555 1.86607
34 1 3.3051 12.9138 -0.0489777
35 1 -0.0174836 4.97504 7.52199
36 1 10.5674 14.698 7.28458
37 1 1.05895 14.2354 1.73092
38 1 5.86962 0.851494 13.081
39 1 0.418446 9.73399 2.91813
40 1 12.2785 12.9951 12.343
41 1 1.05917 11.9314 8.22068
42 1 13.449 13.8754 15.0945
43 1 15.0297 14.8443 4.17024
44 1 8.28738 12.7293 11.8811
45 1 12.0283 5.89149 7.09928
46 1 9.74309 10.2763 7.97081
47 1 10.077 10.9903 12.8865
48 1 8.58129 12.3009 5.32815
49 1 3.68249 1.66965 13.9232
50 1 6.12659 13.4169 13.2353
51 1 4.16384 6.18661 8.72627
52 1 11.1226 0.122448 12.8942
53 1 7.39299 13.993 3.53423
54 1 4.59563 2.16519 3.72884
55 1 12.1333 11.2813 8.51779
56 1 8.89086 10.2529 0.000970228
57 1 2.05096 1.46068 8.22834
58 1 8.50864 5.25185 11.5891
59 1 0.744985 9.51745 8.74357
60 1 10.0889 10.5908 3.63149
61 1 11.5835 3.87106 14.4066
62 1 10.1544 7.03525 10.486
63 1 4.65098 9.99166 9.74913
64 1 8.15707 8.08681 1.53064
65 1 13.9911 7.26602 8.10551
66 1 4.88468 14.7015 3.74081
67 1 5.71452 1.72497 6.44037
68 1 1.44709 0.045947 10.3596
69 1 11.2099 12.6254 1.89938
70 1 8.79094 3.92383 9.31197
71 1 15.0074 12.6105 5.64494
72 1 5.00134 11.0298 7.23361
73 1 0.814427 7.54709 14.1632
74 1 0.598899 4.19866 11.5679
75 1 15.0821 0.715953 12.6161
76 1 12.3219 12.7039 6.02474
77 1 6.30798 1.04847 1.1164
78 1 5.55894 8.01683 7.52796
79 1 4.73046 3.94498 14.9735
80 1 14.5229 1.68759 0.591278
81 1 8.19954 1.20528 3.0569
82 1 10.2977 2.02806 10.5296
83 1 1.91661 4.18646 8.87906
84 1 12.3851 14.905 4.30676
85 1 9.70652 4.53062 4.96384
86 1 8.34083 6.15331 14.759
87 1 2.62307 2.19556 11.6078
88 1 10.0929 14.6237 10.6689
89 1 14.7817 11.3102 1.00248
90 1 9.63877 3.20675 12.7241
91 1 7.63717 3.7615 3.4766
92 1 3.14872 12.6579 2.72149
93 1 13.1047 3.7336 7.94634
94 1 1.2565 7.70211 1.62512
95 1 13.2414 9.84655 12.6828
96 1 6.44714 2.84197 8.97215
97 1 6.05549 4.36418 5.56006
98 1 12.8747 2.17589 12.5442
99 1 8.71694 7.19219 5.74976
100 1 2.83702 8.07377 9.95465
101 1 4.27589 12.0932 11.7566
102 1 1.02257 12.2052 12.1392
103 1 6.49582 8.38711 4.64665
104 1 9.21045 9.50232 10.5956
105 1 7.66697 14.3738 8.67182
106 1 0.973673 13.9621 14.0389
107 1 7.07867 3.89049 1.05104
108 1 12.4903 6.60081 11.0872
109 1 6.93698 9.41765 13.5965
110 1 6.7802 6.95733 12.799
111 1 3.79968 9.65704 5.07424
112 1 1.39298 1.04638 5.66913
113 1 8.74942 12.9961 1.22184
114 1 3.60549 14.9976 6.27939
115 1 10.7546 8.18881 2.68197
116 1 3.89702 14.1784 10.1379
117 1 5.17803 11.3416 1.77488
118 1 3.18999 10.7897 13.9942
119 1 12.2165 2.96206 1.71635
120 1 12.3735 13.4414 9.77903
121 1 13.7505 6.66479 13.3331
122 1 10.759 0.781249 2.38738
123 1 1.78537 1.55962 0.871527
124 1 8.21298 0.743362 5.97643
125 1 12.3291 10.461 0.155506
126 1 13.2629 4.04097 10.5803
127 1 12.9145 4.01523 4.35713
128 1 4.69848 9.47407 0.186947
129 2 4.69975 4.84331 11.7212
130 2 4.22507 4.84023 13.4606
131 2 13.9317 4.66733 14.3104
132 2 0.0558996 4.10955 13.3782
133 2 7.14179 9.83449 3.87474
134 2 8.1346 10.6305 3.04452
135 2 0.963109 4.08928 4.32707
136 2 2.12923 3.48066 3.48552
137 2 14.586 9.53992 9.69272
138 2 13.2972 9.41588 10.8429
139 2 9.75384 0.167867 0.569814
140 2 8.85909 0.784165 14.835
141 2 13.1694 10.0338 7.24655
142 2 13.4749 10.6499 5.85801
143 2 3.67594 13.3663 8.8458
144 2 3.61591 13.6916 7.16569
145 2 3.44182 5.03388 2.53643
146 2 3.33224 6.25215 3.49546
147 2 5.13482 8.15177 1.59759
148 2 4.86284 6.84783 2.15381
149 2 13.4711 6.80023 2.91052
150 2 14.7654 6.75447 2.04898
151 2 0.757897 9.02844 14.0363
152 2 0.127004 10.3954 14.9677
153 2 14.3018 4.77467 4.62099
154 2 -0.0969819 6.2822 4.59557
155 2 10.5304 5.9461 7.70845
156 2 9.11589 6.59492 7.3244
157 2 12.1857 6.52858 5.5002
158 2 11.5232 7.43475 4.19585
159 2 9.87067 2.83289 7.54925
160 2 9.96974 3.41635 6.08151
161 2 4.10317 2.93137 10.8518
162 2 5.26069 3.34334 9.85922
163 2 7.55339 9.96941 10.9371
164 2 7.22492 11.3949 11.1457
165 2 7.59044 2.76345 15.0605
166 2 7.03863 1.56784 14.0157
167 2 6.24548 13.1476 14.9208
168 2 4.98682 13.563 0.127014
169 2 14.0835 13.4112 9.94889
170 2 -0.0700725 12.9043 11.0413
171 2 11.4853 2.18885 6.11132
172 2 12.3936 0.990331 5.39363
173 2 11.2935 6.199 12.647
174 2 11.3867 6.76741 14.2218
175 2 1.28839 8.10612 5.91766
176 2 1.79173 8.39139 7.22865
177 2 11.6677 9.20043 5.92577
178 2 10.5804 9.54163 4.81991
179 2 14.2233 8.32999 5.09973
180 2 -0.0341642 8.535 3.97463
181 2 1.19972 11.7165 5.10611
182 2 2.22856 10.4269 4.78817
183 2 6.093 1.29885 9.8875
184 2 5.20768 -0.0940828 9.9888
185 2 12.4387 8.72913 -0.0407352
186 2 12.8675 7.49128 0.7912
187 2 2.44281 7.09567 11.5645
188 2 2.6507 5.80366 12.4538
189 2 2.77493 6.31116 5.94272
190 2 2.86271 4.87574 5.16892
191 2 7.38285 12.6887 8.19304
192 2 7.79628 12.1713 6.74953
193 2 2.5583 2.70086 1.48002
194 2 3.81455 2.80948 2.3927
195 2 3.25097 11.9499 14.763
196 2 2.91847 12.6437 0.837409
197 2 -0.0563023 4.89062 6.57315
198 2 14.9538 5.76476 7.96976
199 2 10.9195 14.8326 8.10261
200 2 11.1931 14.2707 6.75294
201 2 1.75053 13.8702 2.13764
202 2 1.24979 -0.106051 1.4072
203 2 6.10056 15.0814 13.1001
204 2 6.05952 0.909838 12.0376
205 2 1.00397 8.94621 2.30599
206 2 1.07041 10.3646 3.29949
207 2 11.7306 13.796 12.5272
208 2 11.7856 12.1417 12.8099
209 2 2.08398 12.2638 8.15067
210 2 0.735071 12.51 8.9035
211 2 13.5223 14.9282 15.0012
212 2 13.7409 13.3659 14.1633
213 2 14.1173 14.872 3.96433
214 2 0.184269 14.6546 3.1395
215 2 8.76911 13.2948 11.2557
216 2 9.01442 12.2768 12.3408
217 2 12.59 6.31831 7.74182