ITEM: TIMESTEP
0
ITEM: NUMBER OF ATOMS
384
ITEM: BOX BOUNDS pp pp pp
0.0000000000000000e+00 1.5645677530000000e+01
0.0000000000000000e+00 1.4707145290000000e+01
0.0000000000000000e+00 1.8073037029999998e+01
ITEM: ATOMS id type x y z
1 1 1.38 1.76 3.37
2 1 5.2 4.47 1.11
3 1 6.59 5.39 3.31
4 1 5.28 4.49 5.56
5 1 2.59 0.84 5.67
6 1 2.69 5.43 5.56
7 1 5.2 1.71 1.07
8 1 5.2 1.73 5.58
9 1 1.32 4.61 7.82
10 1 1.3 4.52 3.36
11 1 2.61 5.41 1.1
12 1 2.59 0.82 1.07
13 1 6.54 0.87 3.33
14 1 6.54 0.88 7.83
15 1 6.51 5.4 7.86
16 1 1.35 1.85 7.92
17 1 9.2 1.76 3.37
18 1 13.05 4.55 1.15
19 1 14.35 5.46 3.4
20 1 13.1 4.49 5.66
21 1 10.41 0.84 5.67
22 1 10.51 5.43 5.65
23 1 13.07 1.79 1.07
24 1 13.02 1.73 5.58
25 1 9.15 4.61 7.91
26 1 9.2 4.52 3.4
27 1 10.45 5.49 1.15
28 1 10.49 0.82 1.12
29 1 14.36 0.87 3.33
30 1 14.36 0.88 7.83
31 1 14.36 5.48 7.9
32 1 9.17 1.85 7.92
33 1 1.3 9.11 3.32
34 1 5.3 11.9 1.11
35 1 6.53 12.81 3.4
36 1 5.2 11.84 5.61
37 1 2.59 8.19 5.58
38 1 2.61 12.79 5.61
39 1 5.25 9.14 1.16
40 1 5.2 9.08 5.67
41 1 1.32 11.96 7.91
42 1 1.38 11.87 3.31
43 1 2.69 12.77 1.06
44 1 2.67 8.17 1.12
45 1 6.49 8.14 3.42
46 1 6.49 8.16 7.92
47 1 6.53 12.83 7.81
48 1 1.35 9.21 7.83
49 1 9.09 9.19 3.37
50 1 13.13 11.9 1.11
51 1 14.44 12.82 3.35
52 1 13.1 11.84 5.56
53 1 10.41 8.19 5.58
54 1 10.51 12.79 5.65
55 1 12.99 9.14 1.12
56 1 13.02 9.08 5.67
57 1 9.12 11.89 7.86
58 1 9.15 11.95 3.4
59 1 10.51 12.77 1.15
60 1 10.38 8.25 1.12
61 1 14.29 8.22 3.37
62 1 14.36 8.24 7.92
63 1 14.36 12.83 7.81
64 1 9.12 9.13 7.83
65 1 1.35 1.83 12.45
66 1 5.2 4.47 10.14
67 1 6.59 5.39 12.34
68 1 5.3 4.56 14.65
69 1 2.67 0.84 14.66
70 1 2.69 5.43 14.6
71 1 5.28 1.71 10.15
72 1 5.25 1.81 14.61
73 1 1.32 4.61 16.85
74 1 1.32 4.59 12.35
75 1 2.63 5.49 10.09
76 1 2.64 0.89 10.2
77 1 6.57 0.79 12.41
78 1 6.54 0.88 16.87
79 1 6.53 5.48 16.94
80 1 1.35 1.85 16.86
81 1 9.2 1.76 12.41
82 1 13.02 4.47 10.14
83 1 14.35 5.46 12.34
84 1 13.05 4.57 14.6
85 1 10.46 0.91 14.71
86 1 10.46 5.51 14.69
87 1 13.1 1.71 10.15
88 1 13.07 1.81 14.61
89 1 9.15 4.61 16.94
90 1 9.2 4.52 12.44
91 1 10.45 5.49 10.18
92 1 10.49 0.82 10.16
93 1 14.39 0.79 12.41
94 1 14.36 0.88 16.87
95 1 14.33 5.4 16.89
96 1 9.17 1.85 16.96
97 1 1.3 9.11 12.45
98 1 5.28 11.83 10.1
99 1 6.59 12.74 12.34
100 1 5.3 11.92 14.65
101 1 2.59 8.19 14.71
102 1 2.69 12.79 14.6
103 1 5.2 9.07 10.2
104 1 5.17 9.16 14.66
105 1 1.38 11.89 16.85
106 1 1.38 11.87 12.35
107 1 2.71 12.84 10.14
108 1 2.56 8.25 10.16
109 1 6.49 8.14 12.46
110 1 6.46 8.24 16.91
111 1 6.61 12.83 16.89
112 1 1.3 9.13 16.96
113 1 9.09 9.19 12.41
114 1 13.13 11.9 10.14
115 1 14.41 12.74 12.44
116 1 13.1 11.84 14.69
117 1 10.38 8.27 14.66
118 1 10.53 12.86 14.64
119 1 12.99 9.14 10.15
120 1 13.02 9.08 14.7
121 1 9.23 11.96 16.9
122 1 9.23 11.95 12.39
123 1 10.51 12.77 10.09
124 1 10.38 8.25 10.16
125 1 14.29 8.22 12.41
126 1 14.31 8.16 16.96
127 1 14.44 12.83 16.89
128 1 9.09 9.21 16.91
129 2 0.46 1.48 3.37
130 2 1.33 2.71 3.37
131 2 5.68 4.81 1.86
132 2 5.67 4.81 0.35
133 2 6.13 5.1 4.1
134 2 6.56 6.34 3.34
135 2 4.38 4.84 5.6
136 2 5.7 4.83 6.36
137 2 2.17 1.18 4.88
138 2 3.49 1.17 5.63
139 2 2.23 5.15 6.35
140 2 2.65 6.39 5.59
141 2 5.65 1.43 1.86
142 2 5.23 2.67 1.1
143 2 5.23 2.69 5.61
144 2 5.65 1.45 6.37
145 2 1.78 4.88 8.61
146 2 1.33 3.65 7.85
147 2 1.78 4.85 4.11
148 2 1.78 4.85 2.6
149 2 3.52 5.14 1.1
150 2 2.64 6.37 1.11
151 2 3.49 1.15 1.11
152 2 2.17 1.16 1.87
153 2 6.09 1.14 4.12
154 2 6.53 14.6171 3.37
155 2 6.09 1.15 8.63
156 2 6.53 14.6371 7.86
157 2 7.43 5.14 7.86
158 2 6.53 6.36 7.86
159 2 1.77 1.51 7.13
160 2 0.46 1.51 7.89
161 2 9.16 2.71 3.37
162 2 8.28 1.48 3.37
163 2 13.06 3.59 1.12
164 2 13.5 4.82 0.36
165 2 13.94 5.12 2.61
166 2 15.25 5.14 3.36
167 2 13.52 4.82 4.86
168 2 12.21 4.84 5.62
169 2 11.31 1.17 5.63
170 2 10 1.18 4.88
171 2 10.47 6.39 5.62
172 2 10.05 5.15 4.86
173 2 12.18 1.46 1.11
174 2 13.49 1.45 1.86
175 2 13.05 2.69 5.61
176 2 13.48 1.45 6.37
177 2 9.61 4.88 7.11
178 2 9.16 3.65 7.88
179 2 8.3 4.84 3.36
180 2 9.61 4.85 2.61
181 2 10.04 5.17 0.35
182 2 11.35 5.14 1.11
183 2 10.02 1.16 0.36
184 2 10.02 1.16 1.88
185 2 13.91 1.14 4.12
186 2 14.35 14.6171 3.37
187 2 13.91 1.15 8.63
188 2 14.36 14.6371 7.86
189 2 13.94 5.14 7.11
190 2 15.26 5.16 7.86
191 2 8.28 1.51 7.89
192 2 9.59 1.51 7.13
193 2 1.75 8.83 4.12
194 2 1.33 10.07 3.36
195 2 4.39 12.19 1.1
196 2 5.25 10.94 1.11
197 2 7.43 12.49 3.36
198 2 6.12 12.48 2.61
199 2 5.68 12.17 4.85
200 2 5.68 12.18 6.37
201 2 2.17 8.54 6.37
202 2 3.49 8.52 5.61
203 2 2.64 13.74 5.61
204 2 3.52 12.51 5.61
205 2 4.35 8.81 1.13
206 2 5.66 8.81 0.36
207 2 5.23 10.04 5.63
208 2 5.65 8.8 4.88
209 2 1.78 12.24 7.11
210 2 1.34 11.01 7.88
211 2 0.48 12.2 3.35
212 2 1.79 12.21 4.11
213 2 2.23 12.49 1.85
214 2 2.65 13.72 1.09
215 2 2.19 8.52 1.88
216 2 2.2 8.52 0.36
217 2 7.38 8.49 3.39
218 2 6.07 8.48 2.63
219 2 6.07 8.5 7.13
220 2 7.38 8.51 7.89
221 2 6.12 12.49 8.61
222 2 7.43 12.51 7.85
223 2 0.46 8.86 7.86
224 2 1.77 8.86 8.62
225 2 9.57 8.85 4.13
226 2 9.57 8.84 2.61
227 2 12.21 12.19 1.1
228 2 13.08 10.94 1.11
229 2 13.95 12.48 2.6
230 2 13.95 12.48 4.11
231 2 13.52 12.18 6.36
232 2 12.21 12.19 5.6
233 2 11.31 8.52 5.61
234 2 10 8.54 6.37
235 2 10.47 13.74 5.62
236 2 10.05 12.51 4.86
237 2 13.47 8.8 1.87
238 2 13.47 8.81 0.36
239 2 13.48 8.8 4.88
240 2 13.05 10.04 5.63
241 2 9.6 12.22 8.62
242 2 9.6 12.22 7.11
243 2 9.16 10.99 3.37
244 2 9.61 12.22 2.61
245 2 10.48 13.72 1.13
246 2 10.05 12.49 0.35
247 2 11.3 8.53 1.12
248 2 10.43 7.29 1.11
249 2 15.2 8.51 3.37
250 2 14.34 7.26 3.37
251 2 14.36 7.28 7.88
252 2 13.91 8.52 7.13
253 2 15.26 12.51 7.85
254 2 13.94 12.49 8.61
255 2 9.15 10.09 7.86
256 2 9.57 8.85 8.62
257 2 1.77 1.49 11.66
258 2 0.46 1.49 12.42
259 2 5.68 4.81 10.9
260 2 5.67 4.81 9.38
261 2 6.56 6.34 12.38
262 2 6.13 5.1 13.14
263 2 4.39 4.85 14.65
264 2 5.25 3.61 14.65
265 2 2.19 1.18 13.9
266 2 2.19 1.18 15.42
267 2 2.23 5.15 15.39
268 2 2.65 6.39 14.63
269 2 4.36 1.44 10.15
270 2 5.24 2.67 10.15
271 2 4.35 1.48 14.65
272 2 5.66 1.47 15.41
273 2 1.78 4.88 17.65
274 2 1.33 3.65 16.89
275 2 1.78 4.87 13.14
276 2 1.34 3.64 12.39
277 2 2.21 5.16 10.89
278 2 3.52 5.14 10.13
279 2 2.19 1.18 9.41
280 2 2.63 14.6471 10.16
281 2 6.09 1.13 11.65
282 2 6.09 1.14 13.17
283 2 6.53 14.6371 16.9
284 2 6.09 1.15 17.67
285 2 7.43 5.16 16.9
286 2 6.12 5.14 16.15
287 2 0.46 1.51 16.89
288 2 1.77 1.51 17.66
289 2 8.28 1.48 12.41
290 2 9.16 2.71 12.4
291 2 13.5 4.81 9.38
292 2 13.5 4.81 10.9
293 2 15.25 5.14 12.39
294 2 13.94 5.13 13.14
295 2 13.51 4.84 15.39
296 2 13.06 3.61 14.64
297 2 10.46 14.6671 14.67
298 2 10.01 1.19 13.91
299 2 11.35 5.16 14.65
300 2 10.04 5.17 13.9
301 2 13.07 2.67 10.15
302 2 12.18 1.44 10.15
303 2 13.49 1.47 15.41
304 2 12.18 1.48 14.65
305 2 9.16 3.65 16.91
306 2 9.61 4.88 16.15
307 2 9.61 4.85 11.64
308 2 8.3 4.84 12.4
309 2 10.04 5.17 9.39
310 2 11.35 5.14 10.15
311 2 10.02 1.16 10.91
312 2 10.02 1.16 9.4
313 2 13.92 1.13 11.65
314 2 13.92 1.14 13.17
315 2 13.91 1.15 17.67
316 2 14.36 14.6371 16.9
317 2 14.36 6.36 16.9
318 2 15.25 5.14 16.9
319 2 8.28 1.51 16.93
320 2 9.59 1.51 16.17
321 2 1.75 8.83 11.66
322 2 1.33 10.07 12.41
323 2 5.7 12.16 10.89
324 2 4.38 12.17 10.13
325 2 6.13 12.46 13.14
326 2 6.56 13.7 12.38
327 2 4.39 12.21 14.65
328 2 5.25 10.96 14.65
329 2 3.49 8.52 14.67
330 2 2.17 8.53 13.91
331 2 2.65 13.74 14.63
332 2 2.23 12.5 15.39
333 2 5.22 10.02 10.17
334 2 5.65 8.79 9.4
335 2 5.65 8.81 13.9
336 2 5.65 8.82 15.42
337 2 0.48 12.22 16.89
338 2 1.79 12.22 17.65
339 2 0.48 12.2 12.39
340 2 1.79 12.21 13.14
341 2 2.23 12.52 9.38
342 2 2.23 12.51 10.89
343 2 2.61 7.29 10.15
344 2 3.48 8.53 10.16
345 2 7.38 8.49 12.42
346 2 6.07 8.48 11.66
347 2 6.52 7.28 16.91
348 2 7.37 8.53 16.91
349 2 6.14 12.5 17.65
350 2 6.13 12.5 16.14
351 2 1.75 8.84 16.16
352 2 1.33 10.09 16.92
353 2 9.57 8.85 13.16
354 2 9.57 8.84 11.65
355 2 13.08 10.94 10.15
356 2 12.21 12.19 10.14
357 2 14.37 13.7 12.41
358 2 13.95 12.46 11.65
359 2 12.21 12.19 14.66
360 2 13.52 12.17 13.9
361 2 11.3 8.55 14.66
362 2 10.43 7.31 14.66
363 2 10.05 12.53 15.4
364 2 10.05 12.52 13.89
365 2 13.47 8.81 9.39
366 2 13.47 8.8 10.91
367 2 13.48 8.8 13.91
368 2 13.05 10.04 14.67
369 2 9.19 11.01 16.9
370 2 8.31 12.24 16.9
371 2 8.31 12.22 12.39
372 2 9.19 10.99 12.4
373 2 10.48 13.72 10.13
374 2 10.05 12.49 10.88
375 2 10.43 7.29 10.15
376 2 11.3 8.53 10.16
377 2 15.2 8.51 12.41
378 2 14.34 7.26 12.4
379 2 15.2 8.51 16.93
380 2 13.89 8.5 16.17
381 2 13.96 12.5 17.65
382 2 13.95 12.5 16.14
383 2 9.57 8.86 16.15
384 2 9.56 8.86 17.67
ITEM: TIMESTEP
200
ITEM: NUMBER OF ATOMS
384
ITEM: BOX BOUNDS pp pp pp
2.4136573719089505e-01 1.5404311792809107e+01
2.3499875751976607e-01 1.4472146532480238e+01
3.2049711169290340e-01 1.7752539918307097e+01
ITEM: ATOMS id type x y z
1 1 1.42438 1.73878 3.31451
2 1 5.00948 4.40052 1.06954
3 1 6.32344 5.27569 3.26132
4 1 4.94388 4.39306 5.44064
5 1 2.58588 0.679027 5.44905
6 1 2.4357 5.26303 5.46053
7 1 5.05868 1.71576 1.01369
8 1 5.09527 1.60822 5.51855
9 1 1.26562 4.39851 7.60956
10 1 1.30731 4.38435 3.27402
11 1 2.47887 5.29414 1.16476
12 1 2.53917 0.81477 1.12566
13 1 6.2207 0.929888 3.22018
14 1 6.32158 0.750494 7.67261
15 1 6.2993 5.34113 7.57877
16 1 1.4806 1.69818 7.60052
17 1 8.79092 1.79545 3.26896
18 1 12.6603 4.37172 1.04287
19 1 13.9896 5.26607 3.21086
20 1 12.7596 4.45129 5.39324
21 1 10.0782 0.865157 5.37221
22 1 10.154 5.19695 5.53829
23 1 12.7721 1.73912 1.07957
24 1 12.7109 1.75705 5.38738
25 1 8.8105 4.22325 7.5462
26 1 8.90694 4.45596 3.24964
27 1 10.2047 5.28806 0.979185
28 1 10.1707 0.87651 1.06707
29 1 13.9614 0.7226 3.12736
30 1 14.0082 0.864572 7.64444
31 1 13.9568 5.26814 7.59169
32 1 8.82034 1.59621 7.48836
33 1 1.3422 8.74588 3.19159
34 1 5.07371 11.4688 1.16769
35 1 6.32627 12.4104 3.30948
36 1 4.93176 11.5032 5.37116
37 1 2.50171 8.08825 5.4347
38 1 2.40258 12.3417 5.37274
39 1 5.08126 8.89129 1.11636
40 1 5.13002 8.94771 5.38314
41 1 1.31427 11.5585 7.54489
42 1 1.28913 11.4247 3.13007
43 1 2.58034 12.4321 1.00239
44 1 2.52827 7.84702 1.0691
45 1 6.32374 7.95965 3.28456
46 1 6.27283 7.94755 7.49811
47 1 6.28237 12.3462 7.54383
48 1 1.30176 8.86358 7.62288
49 1 8.81489 8.79729 3.27048
50 1 12.7396 11.3549 1.02002
51 1 13.9269 12.3953 3.18741
52 1 12.7152 11.6072 5.44103
53 1 10.0519 7.93663 5.39883
54 1 10.1322 12.3845 5.37026
55 1 12.7065 8.81698 1.15166
56 1 12.5619 8.83885 5.28188
57 1 8.78161 11.4611 7.51304
58 1 8.85991 11.4607 3.21583
59 1 10.1281 12.4373 1.09022
60 1 10.0767 7.92395 1.10962
61 1 13.9431 7.99208 3.23004
62 1 13.8334 7.9711 7.4836
63 1 14.0578 12.5156 7.63713
64 1 8.81062 8.79659 7.54699
65 1 1.27176 1.66608 11.9802
66 1 5.0732 4.40089 9.78164
67 1 6.35117 5.3593 11.8733
68 1 5.07927 4.33672 14.0186
69 1 2.6091 0.910265 14.2498
70 1 2.63173 5.31573 14.1618
71 1 5.16679 1.72405 9.85387
72 1 5.14477 1.67795 14.1826
73 1 1.32787 4.41995 16.3609
74 1 1.36075 4.37769 11.9854
75 1 2.5944 5.17303 9.75317
76 1 2.59141 0.899266 9.8087
77 1 6.29851 0.824775 11.9825
78 1 6.39113 0.831703 16.3574
79 1 6.37976 5.30095 16.327
80 1 1.26485 1.71793 16.3857
81 1 8.81636 1.72334 11.9833
82 1 12.7376 4.39107 9.79557
83 1 13.9421 5.23316 11.9195
84 1 12.7051 4.40591 13.9913
85 1 10.1416 0.879939 14.1704
86 1 10.1074 5.19349 14.0884
87 1 12.6311 1.75894 9.73383
88 1 12.6349 1.7385 14.1916
89 1 8.84606 4.44401 16.3692
90 1 8.84436 4.37267 11.8866
91 1 10.2262 5.31792 9.71441
92 1 10.1761 0.876817 9.73382
93 1 13.9462 0.796217 11.925
94 1 13.9615 0.891632 16.3516
95 1 13.9535 5.26911 16.269
96 1 8.88506 1.79971 16.3736
97 1 1.27273 8.83614 11.8808
98 1 5.07942 11.6309 9.73977
99 1 6.39028 12.4685 11.922
100 1 5.1467 11.5158 14.1139
101 1 2.53019 7.98649 14.1546
102 1 2.56112 12.4289 13.9981
103 1 5.01269 8.89547 9.63517
104 1 5.11764 8.80948 14.3134
105 1 1.39062 11.4647 16.2233
106 1 1.29539 11.4457 11.9152
107 1 2.55424 12.4941 9.77655
108 1 2.51292 7.93051 9.71645
109 1 6.20576 8.02029 11.9407
110 1 6.31698 7.96297 16.3891
111 1 6.33119 12.3681 16.3244
112 1 1.18659 8.8125 16.3096
113 1 8.78491 8.69906 11.991
114 1 12.6685 11.5537 9.80987
115 1 13.9149 12.3593 11.9872
116 1 12.7481 11.4942 14.1174
117 1 10.0669 7.87993 14.2446
118 1 10.2028 12.396 14.1981
119 1 12.6483 8.81615 9.78388
120 1 12.6016 8.85979 14.1999
121 1 8.8964 11.5552 16.3241
122 1 8.90412 11.5091 11.9794
123 1 10.1303 12.429 9.72395
124 1 10.09 7.95575 9.8276
125 1 13.7909 7.88585 12.0169
126 1 13.9236 7.88716 16.3438
127 1 14.079 12.3977 16.3596
128 1 8.82976 8.82543 16.3589
129 2 0.546177 1.49322 3.39618
130 2 1.34472 2.59909 3.30579
131 2 5.49909 4.90666 1.69679
132 2 5.33239 4.68079 17.6374
133 2 5.89034 4.83916 4.05896
134 2 6.44182 6.30969 3.29195
135 2 3.98343 4.7842 5.42892
136 2 5.55702 4.76446 6.39258
137 2 2.01406 1.26605 4.69762
138 2 3.59009 1.10239 5.35895
139 2 1.97311 5.02625 6.28556
140 2 2.58993 6.21692 5.60824
141 2 5.48718 1.22552 1.75738
142 2 5.10677 2.91318 1.0964
143 2 5.0851 2.51165 5.52815
144 2 5.60178 1.33108 6.28927
145 2 1.88943 4.77915 8.52116
146 2 1.2258 3.24539 7.48422
147 2 1.6668 4.79619 4.06542
148 2 1.93587 4.58898 2.6538
149 2 3.42726 4.98047 1.02798
150 2 2.59669 6.20279 1.19713
151 2 3.60394 1.27357 1.06866
152 2 2.16535 1.22718 1.98064
153 2 5.88341 1.11471 4.05507
154 2 6.34459 14.2017 3.11116
155 2 5.67732 0.933134 8.34149
156 2 6.30364 13.8648 7.61283
157 2 7.38624 4.84692 7.51843
158 2 6.27329 6.46836 7.61803
159 2 1.82417 1.45139 6.70772
160 2 0.471404 1.32276 7.77568
161 2 8.9737 2.81412 3.12053
162 2 7.84001 1.47285 3.14926
163 2 12.4796 3.31483 0.924532
164 2 12.99 4.58072 17.6176
165 2 13.5579 4.89747 2.34463
166 2 14.9235 4.86655 3.14712
167 2 13.0736 4.849 4.57933
168 2 11.6652 4.62359 5.39075
169 2 10.9573 1.21357 5.31279
170 2 9.5746 1.42305 4.6151
171 2 10.0479 6.24294 5.4141
172 2 9.61425 4.83193 4.87949
173 2 11.6384 1.54485 1.0259
174 2 13.0711 1.10346 1.79398
175 2 12.7448 2.82337 5.26709
176 2 13.139 1.48293 6.20468
177 2 9.22011 4.33823 6.64209
178 2 8.68578 3.15879 7.51263
179 2 7.96269 4.79493 3.08647
180 2 9.33173 4.8678 2.35363
181 2 9.5007 5.05278 17.5174
182 2 11.0772 4.99338 1.0438
183 2 9.72677 1.34038 0.337621
184 2 9.75674 1.41229 1.84816
185 2 13.4185 1.0144 4.01463
186 2 13.8184 14.0323 3.28397
187 2 13.6487 1.24075 8.52309
188 2 13.8815 14.0762 7.66186
189 2 13.5499 4.94628 6.73697
190 2 14.974 4.91752 7.74442
191 2 7.86572 1.21239 7.43447
192 2 9.28784 1.37594 6.66113
193 2 1.82805 8.48821 4.26362
194 2 1.15342 9.81661 3.08894
195 2 4.01808 11.9182 0.98827
196 2 5.00976 10.4884 1.06102
197 2 7.27845 12.0958 3.25581
198 2 5.90827 11.9892 2.49419
199 2 5.66405 11.7107 4.75997
200 2 5.30594 11.9226 6.37566
201 2 2.17398 8.59864 6.27406
202 2 3.57188 8.34283 5.52028
203 2 2.50562 13.3161 5.27401
204 2 3.3798 11.9074 5.46248
205 2 4.3637 8.31533 1.37906
206 2 5.45253 8.71326 17.7076
207 2 5.14061 9.84076 5.23339
208 2 5.63929 8.65955 4.55715
209 2 1.7712 11.7282 6.72699
210 2 1.1668 10.551 7.48617
211 2 15.3635 11.8288 3.39374
212 2 1.62121 11.8386 3.9905
213 2 1.94744 11.9833 1.71831
214 2 2.67396 13.3271 1.18358
215 2 1.87372 8.14929 1.90434
216 2 1.93421 8.25669 17.6917
217 2 7.17987 8.38931 3.26683
218 2 5.81881 8.41356 2.55048
219 2 5.94499 8.37774 6.71876
220 2 7.25152 8.35995 7.54608
221 2 5.81154 12.156 8.44727
222 2 7.28984 12.0253 7.53096
223 2 0.444251 8.54934 7.45227
224 2 1.75286 8.54075 8.38692
225 2 9.47872 8.54935 4.09367
226 2 9.26832 8.6148 2.36825
227 2 11.7052 11.9023 1.09792
228 2 12.4421 10.4881 1.16113
229 2 13.3616 11.9035 2.39051
230 2 13.5861 11.9646 4.0973
231 2 13.3397 12.0387 6.08114
232 2 11.8293 11.8543 5.34223
233 2 11.1137 8.40915 5.3799
234 2 9.64261 8.22763 6.16586
235 2 9.99821 13.3203 5.31951
236 2 9.66235 11.9049 4.60885
237 2 13.2341 8.6964 1.85725
238 2 13.3289 8.39454 17.7221
239 2 13.2139 8.68491 4.37773
240 2 12.4421 9.9319 5.38852
241 2 9.27422 11.846 8.17681
242 2 9.3859 11.7725 6.62303
243 2 8.82787 10.5481 3.15965
244 2 9.33312 11.739 2.39228
245 2 10.1637 13.5428 0.886992
246 2 9.76118 12.1038 17.7452
247 2 10.9449 8.18417 1.10759
248 2 10.1788 6.92742 1.08133
249 2 14.834 8.23583 3.29984
250 2 14.1242 7.13901 3.04389
251 2 13.8109 7.10075 7.16672
252 2 13.3842 8.37843 6.5953
253 2 15.0935 12.2691 7.66474
254 2 13.7112 12.1372 8.32815
255 2 8.864 9.74003 7.3475
256 2 9.1043 8.55328 8.34668
257 2 1.82985 1.49106 11.1576
258 2 0.321671 1.30821 11.8223
259 2 5.63893 4.65266 10.6387
260 2 5.44227 4.9856 8.98934
261 2 6.07645 6.32176 11.9222
262 2 5.81858 4.94951 12.8869
263 2 4.08493 4.50754 14.1084
264 2 5.27094 3.39084 14.062
265 2 2.25451 1.24083 13.4385
266 2 2.16756 1.08306 15.0535
267 2 2.18176 4.91808 14.9696
268 2 2.47727 6.48964 14.1943
269 2 4.31406 1.47298 9.693
270 2 5.17957 2.68526 9.66914
271 2 4.0611 1.37069 14.2227
272 2 5.61442 1.48252 15.0077
273 2 1.67775 4.73511 17.2229
274 2 1.12797 3.51888 16.3609
275 2 1.96168 4.63947 12.7995
276 2 1.51046 3.29137 12.1015
277 2 2.17508 4.86673 10.642
278 2 3.58412 5.05796 9.81824
279 2 2.00477 1.19215 8.9794
280 2 2.6118 14.1726 9.97963
281 2 5.78269 0.969114 11.1018
282 2 6.03031 0.93857 12.9677
283 2 6.39616 14.0405 16.3354
284 2 5.78832 1.12302 17.0187
285 2 7.27298 4.79602 16.0959
286 2 5.80225 4.87483 15.349
287 2 15.3907 1.30552 16.5815
288 2 1.90022 1.65323 17.1726
289 2 7.8861 1.24748 12.1428
290 2 8.76402 2.56765 11.7487
291 2 13.2978 4.77137 8.97096
292 2 13.0508 4.88096 10.6996
293 2 14.8837 5.23644 11.9699
294 2 13.7317 4.82384 12.7686
295 2 13.1675 4.64368 14.6879
296 2 12.8509 3.38453 14.0704
297 2 10.1647 14.1622 14.2561
298 2 9.58594 1.26409 13.4122
299 2 11.0062 4.94217 14.095
300 2 9.83204 4.81794 13.1063
301 2 12.6216 2.8158 9.76208
302 2 11.7417 1.20142 9.81366
303 2 13.0507 1.29963 14.9143
304 2 11.4598 1.4604 14.1771
305 2 8.83569 3.39795 16.5537
306 2 9.15254 4.61723 15.4881
307 2 9.18532 4.84664 11.0838
308 2 7.89551 4.74671 11.9223
309 2 10.1335 5.13724 8.81141
310 2 11.1154 5.0673 9.78072
311 2 9.68213 1.35318 10.4389
312 2 9.57009 1.21282 8.87438
313 2 13.3609 0.906514 11.0643
314 2 13.2676 1.06745 12.7619
315 2 13.4978 1.05194 17.1
316 2 14.1203 14.149 16.3916
317 2 13.8946 6.2176 16.0954
318 2 14.9292 5.08916 16.1675
319 2 7.87408 1.52985 16.2313
320 2 9.33724 1.33468 15.7177
321 2 1.66567 8.49615 11.1329
322 2 1.19938 9.85411 11.8672
323 2 5.40011 12.0223 10.8143
324 2 4.10711 11.9505 9.79699
325 2 5.62633 12.1897 12.9326
326 2 6.48511 13.4531 11.9536
327 2 4.09383 11.9966 14.2042
328 2 4.92946 10.552 14.2475
329 2 3.44815 8.24858 14.1488
330 2 1.99056 8.48315 13.4953
331 2 2.46243 13.541 13.9008
332 2 1.97816 12.0997 14.8414
333 2 5.04424 9.87601 9.82619
334 2 5.62183 8.6433 8.97013
335 2 5.55671 8.65168 13.4167
336 2 5.76372 8.5667 15.0411
337 2 0.511525 11.6059 16.0903
338 2 1.65607 12.1765 16.8858
339 2 0.391351 11.7672 12.0196
340 2 1.7271 11.7839 12.7915
341 2 1.95616 12.114 9.11415
342 2 2.27824 12.1375 10.6461
343 2 2.4612 6.93169 9.71306
344 2 3.38611 8.13276 9.8041
345 2 7.20984 8.34726 11.7746
346 2 5.67784 8.33456 11.3084
347 2 6.42082 6.90004 16.2955
348 2 7.20099 8.2431 16.6756
349 2 5.98201 12.0639 17.1303
350 2 5.79892 11.8765 15.4163
351 2 1.79262 8.65213 15.5883
352 2 1.32643 9.83228 16.2282
353 2 9.10872 8.30396 12.8042
354 2 9.2996 8.18237 11.2557
355 2 12.6306 10.5363 10.0411
356 2 11.7859 11.6202 9.6273
357 2 13.8996 13.4925 11.8999
358 2 13.4973 12.1478 11.0961
359 2 11.6738 11.824 14.1396
360 2 13.0641 11.7202 13.2656
361 2 10.8412 8.35024 14.3546
362 2 10.3126 6.9497 14.3387
363 2 9.86397 12.046 14.989
364 2 9.80473 12.1699 13.4293
365 2 13.1818 8.50087 9.01582
366 2 13.0652 8.51315 10.5866
367 2 13.1111 8.56948 13.2286
368 2 12.6191 9.88099 14.2033
369 2 8.82107 10.6444 16.1602
370 2 8.00111 11.8885 16.3363
371 2 7.94973 11.7953 12.1382
372 2 8.86427 10.4846 12.0982
373 2 10.1955 13.4353 9.70101
374 2 9.7131 12.0746 10.5217
375 2 10.1872 6.96553 9.81548
376 2 11.0851 8.25601 9.84965
377 2 14.7042 8.33694 11.8795
378 2 14.0319 6.86851 12.0248
379 2 14.7145 8.05785 16.348
380 2 13.4959 8.33876 15.5933
381 2 13.5737 11.8587 16.9967
382 2 13.5581 12.0945 15.6003
383 2 9.34092 8.58883 15.5097
384 2 9.46439 8.47305 17.0957
ITEM: TIMESTEP
400
ITEM: NUMBER OF ATOMS
384
ITEM: BOX BOUNDS pp pp pp
4.6654049692420863e-01 1.5179137033075790e+01
4.3348055518130035e-01 1.4273664734818711e+01
6.2313843955395143e-01 1.7449898590446061e+01
ITEM: ATOMS id type x y z
1 1 1.4124 1.67669 3.28218
2 1 5.02893 4.46593 1.09712
3 1 6.24568 5.10945 3.22618
4 1 4.82822 4.14431 5.12653
5 1 2.54105 0.497203 5.28707
6 1 2.5021 5.1691 5.28945
7 1 4.84465 1.73117 1.26923
8 1 4.97148 1.5779 5.26937
9 1 1.22388 4.38153 7.39933
10 1 1.23945 4.30304 3.14905
11 1 2.50373 5.05453 1.02295
12 1 2.4644 0.960799 1.07899
13 1 6.17923 0.901667 3.21922
14 1 6.25032 0.763954 7.36376
15 1 6.14996 5.10014 7.1635
16 1 1.41127 1.68798 7.30109
17 1 8.53321 1.75141 3.17622
18 1 12.1847 4.15337 0.795262
19 1 13.3563 4.98404 2.93733
20 1 12.2308 4.09535 5.10572
21 1 9.89205 0.680034 5.15968
22 1 9.82483 5.07428 5.25475
23 1 12.2814 1.53937 0.99823
24 1 12.3999 1.5493 5.30409
25 1 8.5668 4.08185 7.30878
26 1 8.66119 4.34553 3.08067
27 1 9.86008 5.27577 0.889881
28 1 9.77777 0.853174 1.10325
29 1 13.6709 0.947441 3.11183
30 1 13.6758 0.819885 7.44562
31 1 13.4802 5.20103 7.13729
32 1 8.78925 1.47438 7.28642
33 1 1.27384 8.50408 3.11086
34 1 4.97754 11.1056 1.05996
35 1 6.24171 12.0591 3.01134
36 1 4.91247 11.3321 5.15093
37 1 2.47341 7.76934 5.32718
38 1 2.38257 11.8626 5.25902
39 1 4.73177 8.57962 1.04417
40 1 4.85365 8.55726 5.11739
41 1 1.2452 11.103 7.3657
42 1 1.25094 11.1439 3.10023
43 1 2.54807 12.1875 1.06859
44 1 2.3746 7.64643 0.944122
45 1 6.23064 7.74203 3.05158
46 1 6.08721 7.79362 7.30155
47 1 6.0517 12.041 7.37221
48 1 1.17812 8.42536 7.36005
49 1 8.69398 8.54341 3.15533
50 1 12.3072 11.2079 1.09196
51 1 13.5262 12.1731 3.07424
52 1 12.2577 11.3455 5.26618
53 1 9.90359 7.66516 5.29187
54 1 9.78428 12.0043 5.22627
55 1 12.4276 8.60345 1.03605
56 1 12.2421 8.79551 5.08441
57 1 8.46981 11.1491 7.30823
58 1 8.71544 11.1993 3.10556
59 1 9.91423 12.133 1.03523
60 1 9.90013 7.69799 1.01788
61 1 13.4889 7.65985 3.15638
62 1 13.3573 7.87865 7.29165
63 1 13.4906 12.1482 7.51602
64 1 8.47293 8.65015 7.25812
65 1 1.37861 1.59138 11.6033
66 1 4.99593 4.27495 9.38609
67 1 6.245 5.21075 11.5471
68 1 5.06329 4.45828 13.5979
69 1 2.49361 0.768867 13.6901
70 1 2.49319 5.20048 13.6981
71 1 5.02224 1.67265 9.6114
72 1 4.96341 1.84022 13.8006
73 1 1.13644 4.26455 15.7162
74 1 1.34765 4.24538 11.666
75 1 2.54165 5.11177 9.53267
76 1 2.53072 0.768741 9.46397
77 1 6.19402 0.815209 11.7806
78 1 6.029 0.759604 15.8771
79 1 6.33523 5.20855 15.7624
80 1 1.19364 1.6623 15.7459
81 1 8.50117 1.75417 11.5713
82 1 12.3294 4.29747 9.41667
83 1 13.5411 5.0493 11.6236
84 1 12.2355 4.14902 13.5498
85 1 9.751 0.755776 13.5877
86 1 9.72522 5.00261 13.479
87 1 12.2743 1.73977 9.55606
88 1 12.2449 1.53947 13.7947
89 1 8.70298 4.09296 15.6204
90 1 8.56979 4.27382 11.3585
91 1 9.88899 5.16495 9.27129
92 1 9.93567 0.717894 9.54025
93 1 13.6068 0.90821 11.5897
94 1 13.6006 0.63346 15.9213
95 1 13.4128 5.18625 15.582
96 1 8.5543 1.55752 15.6871
97 1 1.19479 8.69542 11.5992
98 1 4.85983 11.2231 9.53024
99 1 6.14375 11.9744 11.654
100 1 4.84144 11.2409 13.6984
101 1 2.42773 7.82518 13.5866
102 1 2.39356 11.9708 13.5945
103 1 4.70471 8.62824 9.44116
104 1 4.71157 8.64449 13.7628
105 1 1.35378 11.0784 15.7945
106 1 1.22169 11.307 11.5134
107 1 2.45295 12.1269 9.41427
108 1 2.35709 7.68481 9.43571
109 1 6.10009 7.93164 11.4599
110 1 6.10581 7.74429 15.7303
111 1 6.19671 12.0493 15.8092
112 1 1.23741 8.54727 15.7323
113 1 8.67855 8.60515 11.454
114 1 12.1933 11.1958 9.44728
115 1 13.5014 12.2395 11.4885
116 1 12.2014 11.2397 13.5454
117 1 9.7453 7.628 13.6721
118 1 9.78667 12.0676 13.4652
119 1 12.2453 8.60919 9.46699
120 1 12.1768 8.63854 13.6147
121 1 8.61843 11.2578 15.8294
122 1 8.5539 11.1236 11.4761
123 1 9.68814 12.0126 9.44928
124 1 9.84059 7.71628 9.44293
125 1 13.476 7.63613 11.5611
126 1 13.5042 7.74388 15.6646
127 1 13.5242 11.8225 15.79
128 1 8.55923 8.58327 15.7192
129 2 15.1233 1.56368 3.45065
130 2 1.29044 2.69946 3.16094
131 2 5.45514 4.59155 1.89087
132 2 5.61607 4.68164 17.0674
133 2 5.90096 4.84524 4.13145
134 2 6.16218 6.11108 3.19805
135 2 3.91637 4.51879 5.12394
136 2 5.36531 4.53713 5.99057
137 2 1.96686 1.0437 4.43431
138 2 3.50699 0.858317 5.09284
139 2 1.86522 4.90336 5.94245
140 2 2.38482 6.19475 5.04064
141 2 5.47107 1.56544 2.09679
142 2 4.92459 2.69505 1.08426
143 2 4.79543 2.48934 5.27401
144 2 5.44452 1.26077 6.04233
145 2 1.71778 4.54829 8.23139
146 2 1.0996 3.44597 7.39338
147 2 1.74719 4.75368 3.85948
148 2 1.73171 4.70147 2.29431
149 2 3.52744 4.88896 1.03596
150 2 2.31404 6.01777 1.15502
151 2 3.38707 1.35781 1.06488
152 2 2.03102 1.17481 1.84002
153 2 5.59663 1.02467 4.22536
154 2 6.16115 13.772 3.10198
155 2 5.76742 1.2507 8.26114
156 2 6.045 13.6251 7.40368
157 2 7.08656 4.6861 7.15793
158 2 6.00381 6.09086 7.33034
159 2 1.89794 1.44173 6.54044
160 2 15.1716 1.48908 7.41845
161 2 8.395 2.73259 3.21869
162 2 7.48972 1.37656 2.99202
163 2 12.1779 3.15481 17.4366
164 2 12.646 4.58073 16.7505
165 2 12.973 4.85181 2.14402
166 2 14.2145 4.64673 2.86168
167 2 12.4785 4.50491 4.10986
168 2 11.2747 4.62494 5.14141
169 2 10.7867 1.00355 5.50273
170 2 9.39046 1.13716 4.44738
171 2 9.71933 6.13362 5.33799
172 2 9.31719 4.86886 4.17208
173 2 11.354 1.25769 1.24908
174 2 12.7912 1.3942 1.86006
175 2 12.276 2.5391 5.38756
176 2 12.9139 1.18484 6.11978
177 2 8.86661 4.42635 6.46172
178 2 8.83461 3.02969 7.29967
179 2 7.67965 4.46001 3.16361
180 2 9.0484 4.55987 2.23443
181 2 9.50975 4.73607 16.977
182 2 10.8276 4.9453 1.02421
183 2 9.33216 1.28318 17.1086
184 2 9.40919 1.31045 1.90106
185 2 13.0465 1.38035 3.89685
186 2 13.653 13.6583 3.21519
187 2 12.9303 1.22073 8.07474
188 2 13.5628 13.5192 7.57905
189 2 13.115 4.45921 6.44304
190 2 14.408 5.02546 7.47858
191 2 7.72376 1.43559 7.34916
192 2 9.24514 1.01777 6.49004
193 2 1.8708 8.1103 3.84125
194 2 1.25327 9.56661 3.36622
195 2 4.14416 11.4755 0.895149
196 2 4.91005 10.1753 1.23299
197 2 7.08138 11.7796 3.02124
198 2 5.63871 11.8228 2.29811
199 2 5.52956 11.5176 4.44513
200 2 5.26513 11.5844 6.00323
201 2 1.9923 8.18285 6.1067
202 2 3.46775 8.15951 5.41419
203 2 2.47175 12.9566 5.38961
204 2 3.30701 11.6237 5.17331
205 2 3.87704 8.15071 0.975955
206 2 5.19083 8.42171 17.072
207 2 4.94257 9.69384 5.03904
208 2 5.47406 8.1958 4.19383
209 2 1.8047 11.0707 6.66419
210 2 0.954828 10.1107 7.55663
211 2 15.1049 11.3679 3.08299
212 2 1.94472 11.3861 3.83679
213 2 2.12079 11.9392 1.89865
214 2 2.59255 13.2928 1.13572
215 2 1.90591 8.20386 1.76345
216 2 2.04495 7.93653 16.9059
217 2 7.24093 7.74943 3.03877
218 2 5.75801 8.1211 2.27181
219 2 5.65221 7.90085 6.31031
220 2 7.1018 8.26222 7.36157
221 2 5.64169 11.7532 8.11832
222 2 7.20443 11.7174 7.30975
223 2 14.9689 8.12013 7.42886
224 2 1.38627 8.30751 8.33164
225 2 9.00722 8.16442 4.01289
226 2 9.2819 8.14136 2.38572
227 2 11.5008 11.6146 1.01014
228 2 12.0933 10.2218 0.928811
229 2 13.0614 11.6832 2.21637
230 2 13.1364 11.9571 3.86768
231 2 12.7649 11.679 6.02147
232 2 11.2354 11.6116 5.26733
233 2 10.8705 8.0886 5.41385
234 2 9.3516 7.98186 6.00569
235 2 9.77336 13.0602 5.16749
236 2 9.43943 11.729 4.26766
237 2 12.8905 8.35301 1.88135
238 2 12.927 8.25907 17.1924
239 2 12.5894 8.51295 4.0901
240 2 12.1575 9.80319 5.24852
241 2 8.83413 11.3343 8.27067
242 2 9.08584 11.4858 6.4855
243 2 8.81817 10.1864 3.02801
244 2 9.29133 11.5482 2.31533
245 2 9.97823 12.9795 0.782206
246 2 9.55654 11.7138 16.8647
247 2 10.7272 8.05634 1.25624
248 2 9.86682 6.40149 0.762525
249 2 14.4051 7.93763 3.26284
250 2 13.5679 6.63761 3.21303
251 2 13.2791 6.89695 7.13873
252 2 12.7418 8.1838 6.46009
253 2 14.4191 11.595 7.27384
254 2 12.8887 11.539 8.20164
255 2 8.50276 9.81085 7.39947
256 2 8.7668 8.14234 8.03736
257 2 1.93699 1.22195 10.6034
258 2 15.0525 1.32115 11.641
259 2 5.36408 4.49335 10.1337
260 2 5.55169 4.6729 8.50751
261 2 5.95887 6.3156 11.469
262 2 5.63544 5.06863 12.4224
263 2 4.02241 4.91041 13.8489
264 2 4.91653 3.40203 13.6686
265 2 2.31915 1.27297 12.8658
266 2 2.15776 1.26202 14.3588
267 2 1.7975 4.95106 14.5725
268 2 2.50528 6.23986 13.7628
269 2 4.19188 1.25643 9.53367
270 2 5.0134 2.65828 9.40658
271 2 4.04431 1.53088 13.8073
272 2 5.27444 1.52645 14.7979
273 2 1.69921 4.50119 16.5441
274 2 1.0393 3.23734 15.674
275 2 1.78822 4.51754 12.4549
276 2 1.41689 3.03885 11.697
277 2 2.08506 4.8419 10.4051
278 2 3.43077 4.78727 9.52155
279 2 2.33826 1.26965 8.38887
280 2 2.42546 13.6718 9.43221
281 2 5.54641 1.21044 11.0732
282 2 5.66193 1.0607 12.5293
283 2 5.82409 13.694 15.8153
284 2 5.41665 1.1456 16.7662
285 2 7.21757 4.84396 15.8313
286 2 5.77908 4.87603 14.9371
287 2 15.1364 0.900408 15.6979
288 2 1.60542 1.44769 16.6632
289 2 7.60083 1.3783 11.6295
290 2 8.68353 2.71243 11.7025
291 2 12.8919 4.63847 8.49495
292 2 12.9322 4.56346 10.4134
293 2 14.3414 4.44227 11.7243
294 2 13.0456 4.51314 12.3083
295 2 12.9747 4.69096 14.2686
296 2 12.2184 3.15654 13.8076
297 2 9.69234 13.6207 13.4468
298 2 9.31349 1.20074 12.7963
299 2 10.6311 4.56982 13.36
300 2 9.30939 4.6564 12.4072
301 2 12.0048 2.60365 9.70855
302 2 11.3671 1.43976 9.6398
303 2 12.584 1.09139 14.4902
304 2 11.3084 1.36314 13.8788
305 2 8.55641 2.95878 15.4759
306 2 9.01175 4.47168 14.7077
307 2 8.92804 4.75682 10.639
308 2 7.8298 4.61712 11.454
309 2 9.47213 4.95922 8.43455
310 2 10.9212 4.9782 9.25939
311 2 9.43455 1.24197 10.2595
312 2 9.44214 0.841909 8.73965
313 2 13.1093 1.23036 10.8408
314 2 13.1764 1.12042 12.3979
315 2 13.1254 1.23689 16.8812
316 2 13.3512 13.5688 16.1343
317 2 13.2553 6.1893 15.3293
318 2 14.3999 4.92824 15.5973
319 2 7.62419 1.35434 15.6596
320 2 9.24697 1.19664 14.9137
321 2 1.67757 8.1545 10.8155
322 2 1.48118 9.82368 11.5505
323 2 5.29396 11.5564 10.519
324 2 3.93809 11.4477 9.56239
325 2 5.55008 11.515 12.4341
326 2 6.11656 12.984 11.6215
327 2 3.82928 11.6129 13.6466
328 2 4.84328 10.2446 13.7584