ITEM: TIMESTEP
0
ITEM: NUMBER OF ATOMS
384
ITEM: BOX BOUNDS pp pp pp
-3.1180958401302572e-01 1.5311809584013066e+01
-3.1180958401302572e-01 1.5311809584013066e+01
-3.1180958401302572e-01 1.5311809584013066e+01
ITEM: ATOMS id type x y z
1 1 4.57679 5.50123 13.6944
2 1 14.8875 3.66367 14.1079
3 1 8.20115 10.8513 3.91518
4 1 1.55859 4.11103 4.68534
5 1 14.0046 11.0534 10.4291
6 1 10.1562 -0.0244194 -0.0179537
7 1 13.1461 9.78511 5.92123
8 1 3.48566 13.6848 7.87681
9 1 3.32305 6.30373 3.20589
10 1 5.30735 8.37688 2.36991
11 1 13.7801 6.32188 1.70807
12 1 0.692367 10.1945 14.1186
13 1 15.0627 5.43363 4.6639
14 1 9.98456 5.97612 7.92121
15 1 12.4056 7.19481 3.96576
16 1 9.83562 2.64919 6.79506
17 1 4.60459 4.17249 11.4106
18 1 7.55062 10.3381 11.1669
19 1 8.27543 1.89543 14.4455
20 1 5.83253 14.0038 0.549654
21 1 -0.277952 13.5963 10.2649
22 1 12.6457 2.09652 6.28487
23 1 10.7129 7.40871 14.2399
24 1 2.2119 7.88472 6.40809
25 1 10.4542 9.69036 5.97773
26 1 -0.282536 8.22967 4.81222
27 1 1.6652 11.2607 4.20606
28 1 6.17365 -0.094545 10.725
29 1 12.1932 8.4542 0.381712
30 1 2.29814 6.67565 12.652
31 1 3.74006 5.65533 5.77839
32 1 7.64075 12.3667 7.75101
33 1 2.57949 3.81144 2.08856
34 1 3.31976 13.3432 0.0677147
35 1 -0.0967938 5.37115 7.46928
36 1 11.1426 14.5448 7.59235
37 1 1.26174 14.8074 2.57217
38 1 6.41618 0.335516 13.3898
39 1 0.207637 9.92258 2.18818
40 1 12.6731 13.1901 12.8323
41 1 1.29363 11.9761 7.9846
42 1 13.2286 14.8362 0.439531
43 1 -0.123887 15.1905 5.01064
44 1 8.80795 12.7708 12.0788
45 1 12.4172 6.75949 6.79319
46 1 9.49869 10.6014 8.40823
47 1 10.544 10.9934 13.3575
48 1 8.99001 12.8372 5.44675
49 1 4.04829 1.51716 14.6149
50 1 6.69928 13.1999 13.7041
51 1 4.43379 6.10378 9.26553
52 1 11.4216 -0.0969869 13.0672
53 1 8.10878 14.4288 3.40524
54 1 4.3962 2.37166 3.28729
55 1 12.1316 11.4523 8.45349
56 1 8.7458 10.8517 -0.213292
57 1 1.53862 1.7361 8.48855
58 1 8.69585 5.89847 11.616
59 1 1.22107 9.19196 8.49846
60 1 10.635 10.5731 3.14594
61 1 11.4957 4.51089 15.2148
62 1 10.9209 6.7156 10.446
63 1 4.94638 10.4223 10.3546
64 1 7.94749 8.55464 1.09697
65 1 14.5919 7.80968 8.4877
66 1 5.26248 14.7619 3.62401
67 1 5.62202 2.26942 6.97039
68 1 1.29568 -0.0251437 10.348
69 1 11.6689 12.7598 1.5126
70 1 8.10674 4.34492 9.29769
71 1 15.2574 12.5827 5.71394
72 1 5.13758 11.4238 7.95676
73 1 0.807368 7.59384 14.5622
74 1 1.07308 4.35508 11.6836
75 1 -0.103901 0.899318 12.6958
76 1 12.4336 12.7126 5.99741
77 1 6.5124 0.898083 1.44852
78 1 5.22926 7.74021 7.34722
79 1 4.69818 3.85809 0.25821
80 1 14.6318 1.53081 0.260033
81 1 8.7843 1.26425 2.88569
82 1 10.1715 2.86217 10.2074
83 1 1.97586 4.56417 8.94346
84 1 12.6683 15.2799 4.82665
85 1 10.1623 4.44247 4.67024
86 1 8.26116 6.29332 15.2182
87 1 2.75694 2.33071 12.3211
88 1 10.1168 15.0402 10.6766
89 1 0.0214213 11.8389 0.424274
90 1 9.92368 3.73613 12.9889
91 1 7.93039 3.8304 3.09944
92 1 3.45334 12.7245 2.72154
93 1 13.7442 3.34545 8.32257
94 1 1.06378 7.50528 1.70711
95 1 13.5608 9.51663 12.896
96 1 6.16563 2.34739 9.6158
97 1 6.00658 4.12469 4.96415
98 1 13.0409 2.11594 12.6389
99 1 9.44842 7.22402 5.61094
100 1 3.08802 8.31472 10.412
101 1 4.27645 12.564 12.0172
102 1 0.247817 12.7339 12.6695
103 1 6.92237 8.32243 4.80264
104 1 10.2096 9.4039 11.0142
105 1 8.10819 14.6608 9.11245
106 1 0.724807 14.5893 14.8093
107 1 7.38606 3.87893 0.612739
108 1 13.59 6.17467 11.3541
109 1 6.57455 9.82429 14.0409
110 1 6.72525 7.05567 13.1783
111 1 3.66994 10.3273 5.96103
112 1 1.66543 1.60839 5.77048
113 1 9.05834 13.0173 1.11863
114 1 4.11235 0.213829 6.02437
115 1 10.3679 8.11545 2.36753
116 1 3.8208 14.5044 10.4834
117 1 6.27696 11.8524 2.07137
118 1 3.1417 11.1769 14.1451
119 1 12.971 3.21476 1.56998
120 1 12.4061 13.5738 10.1924
121 1 14.0948 6.56232 13.8874
122 1 11.4172 0.689063 2.37021
123 1 1.65778 1.52802 1.12949
124 1 7.74882 0.714644 6.86752
125 1 13.0368 10.8806 0.0461404
126 1 14.1536 3.59273 10.8941
127 1 12.9937 3.74289 4.44237
128 1 4.93288 10.2326 0.481908
129 2 4.52916 4.87676 12.9369
130 2 4.69703 5.06241 14.547
131 2 14.6886 4.58995 14.3163
132 2 0.0945933 3.63697 13.6264
133 2 7.74221 10.0755 4.24889
134 2 8.99342 10.7228 3.34745
135 2 0.788771 4.72927 4.53377
136 2 1.81069 3.95163 3.77685
137 2 14.4008 11.9252 10.4575
138 2 13.9069 10.7269 11.3647
139 2 10.6725 0.201823 0.765773
140 2 9.47367 0.652849 -0.0632908
141 2 13.5922 9.97565 6.76473
142 2 13.2152 10.5455 5.32572
143 2 3.67781 14.0964 8.7488
144 2 3.53939 14.3835 7.27865
145 2 3.09567 5.45978 2.78243
146 2 3.60518 6.19337 4.09913
147 2 5.08995 9.05489 1.76222
148 2 4.54185 7.79795 2.5309
149 2 13.4381 6.67871 2.59019
150 2 14.7355 6.25337 1.79471
151 2 0.77524 9.18308 14.2443
152 2 0.388115 10.6288 14.9234
153 2 14.1894 4.91997 4.56536
154 2 14.9228 6.4107 4.60147
155 2 10.8762 5.93786 7.61697
156 2 9.58879 6.53361 7.20672
157 2 12.1014 7.06547 4.8105
158 2 11.5829 7.27566 3.48345
159 2 9.70669 3.06202 7.62541
160 2 9.96186 3.35305 6.0781
161 2 3.89127 3.51534 11.556
162 2 5.31618 3.63484 11.0911
163 2 8.36256 9.80951 10.99
164 2 7.91946 11.2623 11.3115
165 2 7.80256 2.56448 14.9346
166 2 7.58248 1.21916 14.1315
167 2 6.10462 13.5421 -0.242407
168 2 4.85977 13.825 0.528199
169 2 14.4101 13.8153 10.1623
170 2 -0.0704958 13.4422 11.1966
171 2 11.7088 2.1063 6.54679
172 2 12.6961 1.18401 5.89058
173 2 10.9921 7.5299 13.3514
174 2 11.2636 8.01166 14.7268
175 2 1.57728 7.89927 5.7134
176 2 1.87051 8.36741 7.16573
177 2 11.4302 9.71213 6.20698
178 2 10.3486 10.1292 5.1128
179 2 14.4149 8.445 5.04536
180 2 0.00164071 8.8165 4.03796
181 2 1.02838 11.8189 4.67407
182 2 2.36173 10.8675 4.79517
183 2 6.32838 0.734699 10.265
184 2 5.21972 -0.301306 10.6492
185 2 12.568 9.37229 0.310345
186 2 12.8634 7.95827 0.824663
187 2 2.56428 7.41349 12.0109
188 2 3.14156 6.4193 13.0935
189 2 3.16723 6.41343 5.9805
190 2 3.10221 4.98312 5.63197
191 2 7.73547 13.1577 8.33842
192 2 8.06104 12.6116 6.87934
193 2 1.75422 3.38105 1.7562
194 2 3.25148 3.1727 2.47226
195 2 3.15037 12.6412 14.9757
196 2 3.16776 12.9566 0.983888
197 2 0.0720948 5.37286 6.52711
198 2 -0.245356 6.34024 7.61737
199 2 11.6512 14.8569 8.35832
200 2 11.802 13.9131 7.23812
201 2 2.07792 14.3411 2.56175
202 2 1.50629 0.044002 2.08403
203 2 6.3968 14.9261 13.4491
204 2 6.20534 0.425411 12.4267
205 2 0.660795 9.1318 1.85703
206 2 0.694078 10.391 2.87312
207 2 12.3708 14.0972 13.0916
208 2 12.1841 12.5232 13.366
209 2 2.09163 12.5603 7.87369
210 2 0.901668 12.2269 8.80367
211 2 13.6981 0.109016 0.335681
212 2 13.4443 14.3386 15.279
213 2 14.5376 15.2076 4.93591
214 2 0.228484 14.9795 4.13145
215 2 9.24837 13.4527 11.622
216 2 9.52013 12.2417 12.5392
217 2 12.875 7.30125 7.44426
218 2 13.1287 6.09272 6.70831
219 2 8.70364 11.2231 8.31889
220 2 9.67729 10.2938 7.51515
221 2 10.4955 10.2933 12.7118
222 2 10.0325 10.7711 14.1408
223 2 9.87115 13.0955 5.5737
224 2 8.95145 12.0108 4.93614
225 2 4.74251 0.928236 14.2575
226 2 3.48888 1.81195 13.8977
227 2 7.56401 13.1017 13.1985
228 2 6.02622 12.6782 13.2435
229 2 3.65548 5.64787 8.88705
230 2 4.53028 5.65688 10.1121
231 2 10.7483 -0.0654962 13.7661
232 2 11.7812 0.808853 13.0779
233 2 8.36482 -0.291862 3.46612
234 2 8.34757 14.0066 4.25098
235 2 5.1094 1.81781 2.95108
236 2 4.6411 2.96006 4.03817
237 2 12.5339 11.0417 9.22128
238 2 11.1841 11.2095 8.49369
239 2 8.60742 10.312 0.576946
240 2 8.69537 11.7883 0.0583599
241 2 1.42282 1.68337 7.50469
242 2 1.60998 2.65673 8.73322
243 2 8.87953 5.11923 12.1645
244 2 8.03029 6.40716 12.1505
245 2 1.95332 8.95172 9.16853
246 2 1.28006 10.1574 8.3047
247 2 11.2632 11.2403 2.79611
248 2 10.7957 9.70539 2.72449
249 2 11.5653 5.40273 -0.288322
250 2 11.1896 4.32648 14.2564
251 2 10.4204 6.65681 9.62663
252 2 10.2607 6.46258 11.0571
253 2 5.87632 10.1769 10.5904
254 2 4.94364 10.8143 9.46912
255 2 7.91802 7.6928 0.604333
256 2 7.17835 8.74025 1.63464
257 2 14.2008 7.92642 9.35992
258 2 -0.267797 8.44072 8.55252
259 2 6.16366 14.3915 3.8125
260 2 4.75946 14.0077 3.26281
261 2 6.35085 1.60272 6.90857
262 2 4.84301 1.75402 6.76165
263 2 1.34137 0.662419 9.62968
264 2 0.817817 14.7755 10.0578
265 2 10.8342 13.0339 1.10914
266 2 12.2496 13.5788 1.43103
267 2 7.99168 4.93257 10.0429
268 2 8.59208 4.87508 8.55834
269 2 -0.0863874 13.5026 5.64494
270 2 0.00602987 12.1735 6.56287
271 2 6.0476 11.6847 7.84187
272 2 4.65027 12.2574 7.8746
273 2 -0.10786 7.21382 14.4417
274 2 1.40859 7.20909 13.8607
275 2 1.10879 5.19843 12.1297
276 2 0.142322 4.18446 11.4107
277 2 0.192301 0.569522 11.8253
278 2 0.262058 0.216297 13.3227
279 2 13.325 12.966 5.76917
280 2 12.474 12.1815 6.79075
281 2 6.96454 1.33987 0.72514
282 2 6.22808 -0.0168944 1.14781
283 2 5.28424 6.95392 7.95734
284 2 5.69738 8.44349 7.79401
285 2 4.59695 2.96295 -0.156096
286 2 4.05776 3.8329 1.0606
287 2 14.2623 2.20361 0.861912
288 2 14.7961 2.02476 15.1013
289 2 7.90736 0.984376 2.41964
290 2 8.42535 2.08554 3.23522
291 2 9.33834 3.30929 9.83257
292 2 10.1754 1.88055 10.1119
293 2 1.75381 4.52695 9.90946
294 2 1.11552 4.78978 8.54253
295 2 12.2645 0.0873025 4.07993
296 2 12.0334 14.6435 5.15054
297 2 9.97133 5.30379 5.02216
298 2 9.51596 4.30903 3.95105
299 2 9.11176 6.41377 14.7882
300 2 7.57568 6.54 14.599
301 2 2.07189 2.92609 11.9449
302 2 2.69894 1.52435 11.845
303 2 10.8501 14.3815 10.4642
304 2 10.5118 -0.206863 11.478
305 2 0.274248 12.7719 0.61942
306 2 0.108425 11.2293 1.22179
307 2 9.70727 2.84376 13.3266
308 2 10.3129 3.49932 12.1129
309 2 7.16744 3.93944 3.6373
310 2 7.68964 3.77425 2.12389
311 2 2.7812 12.2345 3.34142
312 2 4.17512 12.108 2.65722
313 2 13.4252 2.63657 7.76521
314 2 14.4885 3.85196 7.85505
315 2 1.16553 7.50623 0.684607
316 2 1.80702 6.9489 2.01705
317 2 14.4305 9.58843 13.243
318 2 13.0187 10.0336 13.4694
319 2 5.70123 2.57075 8.68482
320 2 6.80813 3.05178 9.52933
321 2 5.35787 4.80808 5.12533
322 2 5.96938 3.53575 5.71789
323 2 13.0854 2.74416 13.3668
324 2 13.871 1.59988 12.7008
325 2 8.54415 7.16809 5.28465
326 2 9.76316 8.11779 5.62097
327 2 3.5805 7.58031 10.0651
328 2 3.76188 9.05652 10.3377
329 2 4.55808 11.8882 11.3243
330 2 3.56374 12.075 12.5347
331 2 0.334551 11.7965 12.6005
332 2 0.24849 12.8839 13.5924
333 2 6.35726 8.22802 5.65351
334 2 6.38531 8.12785 4.02112
335 2 10.214 9.5859 10.0692
336 2 10.6644 8.57403 11.1276
337 2 8.95214 14.8857 9.64428
338 2 7.3584 14.7538 9.70982
339 2 0.591563 15.0693 0.0182509
340 2 1.70203 14.3696 14.7724
341 2 6.4741 3.89198 0.306924
342 2 7.8908 4.74294 0.474307
343 2 13.7745 5.25403 11.174
344 2 12.6407 6.3597 11.1641
345 2 6.61181 10.3071 13.1711
346 2 7.38294 10.2018 14.4287
347 2 5.92965 6.53312 13.3142
348 2 6.65131 8.00804 13.4902
349 2 4.1508 10.9057 6.58172
350 2 3.72612 9.43762 6.27968
351 2 0.960879 1.05271 5.33877
352 2 1.48012 2.49213 5.40543
353 2 8.71011 13.4532 1.93204
354 2 8.99593 13.78 0.520382
355 2 3.28533 0.709593 5.89467
356 2 4.52263 -0.105961 5.1872
357 2 10.8957 8.12501 1.5533
358 2 9.392 8.09909 2.00114
359 2 2.85608 14.8006 10.6062
360 2 3.90293 13.7417 11.0449
361 2 6.48734 12.6937 1.54518
362 2 7.04029 11.6822 2.67807
363 2 2.24681 10.7375 14.3261
364 2 3.668 10.6767 14.8241
365 2 12.3482 3.69431 0.972113
366 2 13.2921 3.83378 2.19605
367 2 12.5073 12.8061 9.60602
368 2 12.5354 13.311 11.1419
369 2 13.9506 6.55755 12.8999
370 2 13.4462 7.1125 14.3857
371 2 11.8334 1.45816 2.05064
372 2 10.4376 0.894116 2.52875
373 2 0.844146 1.54638 0.605455
374 2 2.39804 1.38307 0.478242
375 2 7.77884 0.12269 7.66547
376 2 8.60235 1.23456 6.91956
377 2 12.4122 11.5105 0.551261
378 2 13.9301 11.2794 0.187093
379 2 13.8259 3.47873 9.96028
380 2 13.5184 3.1733 11.5056
381 2 12.9666 3.11167 5.2382
382 2 12.0906 4.05916 4.29522
383 2 5.48443 10.7696 1.07083
384 2 5.47524 10.05 -0.286949
ITEM: TIMESTEP
200
ITEM: NUMBER OF ATOMS
384
ITEM: BOX BOUNDS pp pp pp
-2.1868351273538700e-01 1.5218683512735430e+01
-2.1868351273538700e-01 1.5218683512735430e+01
-2.1868351273538700e-01 1.5218683512735430e+01
ITEM: ATOMS id type x y z
1 1 4.48983 5.63912 13.1407
2 1 14.5245 3.89875 13.937
3 1 7.60542 10.6249 3.80694
4 1 1.72868 3.77111 4.60976
5 1 13.6254 10.1557 10.2694
6 1 9.97765 0.218208 -0.0540232
7 1 13.2951 9.63911 6.04403
8 1 3.34813 13.5571 7.60972
9 1 3.13844 6.41002 2.82895
10 1 5.60076 7.83403 2.53591
11 1 13.7966 6.5972 1.84428
12 1 0.587144 10.0705 13.7913
13 1 14.9762 5.49188 4.86938
14 1 9.91324 5.93869 7.92911
15 1 12.2552 7.04254 3.98912
16 1 9.93532 2.71169 6.74304
17 1 4.718 3.86269 11.173
18 1 7.30536 10.3984 11.341
19 1 8.29273 1.9729 14.4576
20 1 5.75781 13.9508 0.580186
21 1 -0.114787 13.3076 10.0484
22 1 12.5178 1.87417 6.27858
23 1 10.6313 7.12604 14.2164
24 1 1.95746 7.88226 6.34261
25 1 10.4121 9.25208 5.79637
26 1 15.0793 8.21122 4.72438
27 1 1.75754 11.4334 4.45364
28 1 5.95893 0.385375 10.5509
29 1 12.2321 8.02147 0.374658
30 1 2.21021 6.59207 12.3056
31 1 3.55094 5.71493 5.35009
32 1 7.67215 11.9126 7.85533
33 1 3.16421 3.55754 2.23552
34 1 3.03326 13.3488 0.176048
35 1 -0.0232629 5.29158 7.58712
36 1 10.66 14.549 7.38774
37 1 1.2391 14.5045 2.31755
38 1 6.10957 0.454197 13.2938
39 1 0.392292 9.90332 2.75059
40 1 12.2706 13.0757 12.4896
41 1 0.938662 12.2786 8.08494
42 1 13.5438 14.2487 0.232177
43 1 -0.0485539 14.9161 4.49473
44 1 8.52234 12.7236 11.8121
45 1 12.509 6.29933 6.83455
46 1 9.69026 10.2791 8.2185
47 1 10.4082 11.0215 12.8178
48 1 8.83102 12.3448 5.44477
49 1 3.96045 1.63933 14.2345
50 1 6.47443 13.2282 13.4051
51 1 4.12175 5.92632 9.26763
52 1 11.229 0.0037279 13.1215
53 1 7.54659 14.218 3.51319
54 1 4.74106 2.09311 3.56068
55 1 12.2294 11.1926 8.37453
56 1 8.84723 10.5618 -0.16716
57 1 1.69017 1.7423 8.40745
58 1 8.51899 5.5882 11.5137
59 1 1.18256 9.13375 8.5107
60 1 10.4579 10.5002 3.34098
61 1 11.5693 4.34903 14.8661
62 1 10.471 6.92804 10.5104
63 1 4.85635 10.2025 10.0448
64 1 7.95021 8.06263 1.29761
65 1 14.3318 7.51794 8.65734
66 1 4.905 14.8148 3.74652
67 1 5.75361 1.93877 6.84199
68 1 1.32226 0.437295 10.3792
69 1 11.4219 12.4439 1.73594
70 1 8.25867 4.24469 9.35699
71 1 15.1729 12.5339 5.71223
72 1 4.90967 11.3411 7.54381
73 1 0.913898 7.464 14.3865
74 1 1.10611 4.27133 11.7543
75 1 -0.0640108 0.582499 12.7908
76 1 12.4053 12.5001 6.01739
77 1 6.1523 1.03043 1.43258
78 1 5.53197 8.04475 6.98739
79 1 4.61188 3.95733 -0.18254
80 1 14.4912 1.74817 0.327231
81 1 8.57048 1.29173 2.61235
82 1 10.1784 2.55048 10.2176
83 1 1.85019 4.40416 8.88116
84 1 12.6347 15.085 4.25177
85 1 10.2071 4.80837 4.86798
86 1 8.29882 6.32362 14.9072
87 1 2.79383 2.22003 12.1052
88 1 9.94616 14.752 10.7292
89 1 -0.181518 11.2803 0.747337
90 1 9.67662 3.55419 12.7895
91 1 7.90943 3.84937 3.54324
92 1 3.32091 12.7091 2.689
93 1 13.4145 3.53764 8.14898
94 1 0.797385 7.53841 1.7
95 1 13.3906 9.98259 12.7444
96 1 6.16844 2.72624 9.33607
97 1 5.82037 3.8648 5.16987
98 1 13.0965 1.82854 12.6718
99 1 8.94503 6.99837 5.43243
100 1 3.1042 8.17563 10.3048
101 1 4.37514 12.2184 12.04
102 1 0.601273 12.7162 12.3881
103 1 6.76535 8.50036 4.75539
104 1 9.71497 9.51376 10.7522
105 1 7.92503 14.503 8.95016
106 1 0.818641 14.3646 14.5197
107 1 7.36145 3.96913 0.287033
108 1 13.3657 6.60194 10.8716
109 1 6.61937 9.52462 13.6343
110 1 6.74216 6.90698 13.0365
111 1 3.53359 9.78404 5.65221
112 1 1.5278 1.25232 5.70181
113 1 9.12092 13.2809 1.05723
114 1 3.94231 0.233744 6.13084
115 1 10.3961 8.08123 2.28603
116 1 3.75878 14.1929 10.3256
117 1 5.62785 11.6155 2.21931
118 1 3.26159 11.0512 14.2153
119 1 12.3274 2.90256 1.55307
120 1 12.4803 13.6659 10.1307
121 1 13.9376 6.50546 13.6192
122 1 11.1403 0.853466 2.49491
123 1 1.8357 1.39766 1.06472
124 1 8.0662 0.7214 6.66968
125 1 12.6942 10.6436 -0.16654
126 1 13.9973 3.81571 10.7321
127 1 12.5724 4.18732 4.04883
128 1 4.93012 9.73927 0.409525
129 2 4.62719 4.96511 12.3924
130 2 4.40526 5.23008 14.1416
131 2 14.1122 4.92306 13.9675
132 2 -0.0753714 3.93094 13.4785
133 2 7.32212 9.65621 4.30885
134 2 8.69143 10.5431 3.49182
135 2 0.920312 4.2603 4.56698
136 2 2.26351 3.67413 3.82601
137 2 14.3614 10.8041 10.1949
138 2 13.4386 10.261 11.2949
139 2 10.3266 0.438024 0.787695
140 2 9.20025 0.741774 15.0299
141 2 13.3513 9.69591 7.08388
142 2 13.5115 10.6606 5.85663
143 2 3.41247 13.9697 8.46894
144 2 3.47837 14.1897 6.83601
145 2 3.03677 5.73602 2.15363
146 2 3.22542 6.3811 3.73719
147 2 5.36272 8.61753 1.93572
148 2 4.83913 7.22196 2.61029
149 2 13.2985 6.56443 2.58875
150 2 14.6746 6.89156 2.11948
151 2 0.703086 9.07094 13.7143
152 2 0.357285 10.3486 14.7823
153 2 14.0449 5.07119 4.76149
154 2 14.8314 6.40963 4.59389
155 2 10.7778 5.9584 7.48447
156 2 9.34161 6.59089 7.22765
157 2 12.4763 7.09346 4.97816
158 2 11.4414 7.72155 3.84067
159 2 9.66171 3.06709 7.68547
160 2 9.984 3.55043 6.23006
161 2 4.2914 3.02562 11.3046
162 2 5.5368 3.62013 10.585
163 2 8.20158 9.88584 11.1379
164 2 7.61565 11.4001 11.1794
165 2 7.94157 2.81105 15.2025
166 2 7.56889 1.5903 13.8783
167 2 6.19266 13.6102 15.1095
168 2 4.8633 13.9774 0.379605
169 2 14.3856 13.5818 10.0576
170 2 0.0597073 13.0422 10.9218
171 2 11.5688 1.89149 6.56462
172 2 12.4629 1.00914 5.7396
173 2 10.8753 7.32108 13.3576
174 2 11.173 7.54504 14.8546
175 2 1.18687 7.8303 5.62746
176 2 1.61934 8.39634 7.06526
177 2 11.3991 9.07071 5.8836
178 2 10.466 9.94821 5.04217
179 2 14.5291 8.89656 5.24807
180 2 0.154267 8.7237 4.02145
181 2 1.10437 11.9896 5.00544
182 2 2.47526 10.8572 4.9503
183 2 6.06861 1.19644 9.91162
184 2 5.01572 0.0661918 10.4927
185 2 12.4312 9.06646 0.13286
186 2 13.0717 7.28546 0.874558
187 2 2.46987 7.21197 11.5173
188 2 3.13734 6.32931 12.6158
189 2 2.98847 6.27545 5.68993
190 2 2.85245 4.96707 5.15512
191 2 7.62091 12.5584 8.31184
192 2 8.0654 12.1177 6.73954
193 2 2.66139 2.85582 1.6217
194 2 3.83266 2.93388 2.84859
195 2 3.02848 12.5452 15.1071
196 2 2.92298 13.0326 1.08169
197 2 -0.216405 5.47011 6.52582
198 2 14.9813 6.10083 7.88511
199 2 11.2678 -0.126627 7.47801
200 2 11.3201 13.8081 6.98181
201 2 2.13729 13.7916 2.45513
202 2 1.61118 15.2123 1.88086
203 2 6.21789 14.8818 13.4629
204 2 5.99857 0.343394 12.4746
205 2 0.814125 9.29202 2.28986
206 2 0.96172 10.3217 3.44062
207 2 11.6837 13.9039 12.6529
208 2 11.6585 12.2784 12.5233
209 2 1.71091 12.7823 7.84972
210 2 0.448467 12.7552 8.76342
211 2 13.2488 -0.146002 0.295306
212 2 13.6037 14.1546 14.5997
213 2 14.33 -0.218326 4.32591
214 2 0.456443 14.8086 3.59288
215 2 8.88607 13.2995 11.1804
216 2 9.26686 12.3461 12.1715
217 2 12.9437 6.81968 7.52253
218 2 12.8522 5.34913 6.58332
219 2 8.82574 11.0379 8.24121
220 2 9.96208 9.84834 7.41385
221 2 10.0655 10.3071 12.0873
222 2 9.87329 10.6436 13.5247
223 2 9.68931 12.0845 5.24904
224 2 8.64726 11.6348 4.72965
225 2 4.69813 1.18366 13.8006
226 2 3.51344 1.84656 13.4842
227 2 7.35661 13.1227 12.9375
228 2 5.64828 13.0658 12.8771
229 2 3.50192 5.27425 9.06968
230 2 4.76961 5.64628 9.94761
231 2 10.9994 0.250561 14.0367
232 2 11.9444 0.719288 12.9746
233 2 8.04681 14.9039 3.37898
234 2 8.10407 13.6271 4.2694
235 2 5.25175 1.65314 2.90235
236 2 5.41508 2.81125 3.96583
237 2 12.6079 10.8136 9.35744
238 2 11.3587 10.7522 8.31248
239 2 8.43212 9.67513 0.414624
240 2 8.78762 11.3444 0.427997
241 2 1.48566 1.43697 7.30889
242 2 1.68533 2.71611 8.43965
243 2 8.78802 4.84506 12.1682
244 2 7.81501 6.11755 11.9903
245 2 1.70471 8.73695 9.35161
246 2 1.21994 10.2174 8.38755
247 2 10.9766 11.2243 2.92133
248 2 10.5807 9.59581 2.84334
249 2 11.1557 5.2758 14.9908
250 2 10.9344 3.99953 13.9973
251 2 10.383 6.32385 9.46585
252 2 9.63477 6.4892 10.8912
253 2 5.84505 9.93828 10.1378
254 2 4.85475 10.5281 9.16577
255 2 8.12158 7.33387 0.630564
256 2 7.21386 7.90943 1.92009
257 2 14.0196 7.08683 9.63068
258 2 15.0764 8.17414 8.86296
259 2 5.81206 14.4294 3.74794
260 2 4.3641 14.0028 3.45948
261 2 6.5296 1.33184 6.74587
262 2 4.94662 1.37847 6.75529
263 2 1.44543 1.10151 9.62742
264 2 0.707653 15.1468 10.2337
265 2 10.6377 12.9816 1.36046
266 2 12.1642 13.0002 1.65727
267 2 8.16413 4.72255 10.2389
268 2 8.80242 5.01414 8.68339
269 2 -0.147067 13.4676 5.29279
270 2 0.34024 12.5178 6.53594
271 2 5.88417 11.4783 7.54304
272 2 4.48686 12.1486 7.56697
273 2 -0.032018 7.17423 14.1531
274 2 1.42116 7.24961 13.7288
275 2 1.58024 5.19904 11.8702
276 2 0.243654 4.21255 11.2972
277 2 0.353701 0.647238 11.8931
278 2 0.567664 0.461387 13.4711
279 2 13.5175 12.7306 5.94117
280 2 12.3042 11.8725 6.75792
281 2 6.36289 1.67897 0.617248
282 2 6.12889 -0.0478859 1.17611
283 2 5.1271 7.16415 7.14235
284 2 4.89314 8.65264 7.22104
285 2 4.43756 3.14062 14.5397
286 2 4.11626 4.01488 0.567158
287 2 13.9308 2.1291 0.970411
288 2 14.7078 2.44598 15.1082
289 2 7.8593 1.27542 1.87027
290 2 8.28416 2.20977 3.05212
291 2 9.66922 3.15198 9.44824
292 2 10.4833 1.55243 10.1614
293 2 1.49916 4.548 9.68933
294 2 1.21495 4.93196 8.22299
295 2 12.2784 -0.128686 3.5516
296 2 12.1913 14.3959 4.72046
297 2 9.88235 5.79329 4.92521
298 2 9.41945 4.26327 4.24678
299 2 8.92671 6.82313 14.5811
300 2 7.64373 6.31574 14.1113
301 2 1.97496 2.91992 12.0102
302 2 2.36966 1.58348 11.4596
303 2 10.853 14.6035 10.3975
304 2 10.2642 15.0395 11.6573
305 2 -0.0948078 12.1521 0.901551
306 2 -0.107877 10.7744 1.53912
307 2 9.11254 2.71334 13.2645
308 2 10.301 3.2309 12.0408
309 2 7.11111 3.85846 4.06557
310 2 7.77518 4.32419 2.65696
311 2 2.6562 12.3015 3.46628
312 2 4.08209 12.0803 2.7483
313 2 13.2939 2.77806 7.56927
314 2 14.3058 3.99577 7.91796
315 2 0.685166 7.40323 0.635459
316 2 1.50589 7.13925 2.22989
317 2 14.4277 9.94238 12.7357
318 2 12.9962 10.3171 13.4472
319 2 5.96756 2.68276 8.30234
320 2 6.96278 3.31522 9.10947
321 2 4.94672 4.65178 5.3262
322 2 5.65114 3.11481 6.07754
323 2 13.2329 2.50396 13.4077
324 2 13.868 1.20451 12.861
325 2 7.98892 7.28939 5.06869
326 2 9.42737 7.93167 5.67796
327 2 3.37964 7.42015 10.1647
328 2 3.72662 8.78664 10.1015
329 2 4.55527 11.6653 11.2637
330 2 4.16013 11.678 12.6655
331 2 0.241716 11.7747 12.8948
332 2 0.45154 13.3972 13.0129
333 2 6.3079 8.32321 5.51646
334 2 6.28932 8.11225 3.87778
335 2 9.711 9.79579 9.76615
336 2 10.3039 8.57016 10.9201
337 2 8.60507 14.6622 9.61617
338 2 7.22712 14.7879 9.47852
339 2 0.297759 14.7728 15.1071
340 2 1.6707 14.0392 15.0125
341 2 6.4199 4.13666 0.350418
342 2 7.77512 4.97725 0.283157
343 2 13.4596 5.80582 10.7937
344 2 12.3611 6.61614 10.7332
345 2 6.73898 9.88692 12.7353
346 2 7.25425 9.97638 14.2941
347 2 5.7052 6.3601 13.0477
348 2 6.61945 8.07879 13.4309
349 2 3.92687 10.1598 6.47717
350 2 2.98915 9.00835 6.02431
351 2 0.871044 0.495052 5.13515
352 2 1.35787 2.15729 5.24751
353 2 8.83504 13.4983 1.96444
354 2 9.37472 13.9602 0.469344
355 2 2.98603 0.58428 5.99026
356 2 4.30937 -0.141382 5.19587
357 2 10.9575 8.16549 1.43342
358 2 9.55361 8.06965 1.77679
359 2 2.95142 14.7262 10.5449
360 2 3.91051 13.6181 11.1761
361 2 5.82164 12.5197 1.61595
362 2 6.34805 11.2545 2.58982
363 2 2.46491 10.625 14.0082
364 2 3.67066 10.3677 14.9472
365 2 11.9398 3.31199 0.802249
366 2 12.6849 3.52042 2.17258
367 2 12.4301 12.8121 9.53274
368 2 12.2938 13.3196 11.0011
369 2 13.7902 6.69239 12.7382
370 2 13.1177 6.5926 14.2205
371 2 11.5151 1.51836 2.05381
372 2 10.1447 1.11763 2.58661
373 2 0.939237 1.58758 0.791721
374 2 2.21827 1.28308 0.219278
375 2 8.00499 0.0152705 7.36614
376 2 8.94594 1.29793 6.75833
377 2 12.2375 11.1746 0.546826
378 2 13.625 10.9186 0.0922213
379 2 13.8716 3.53506 9.84309
380 2 13.5818 3.1576 11.2259
381 2 12.6957 3.34086 4.38897
382 2 11.5621 4.54534 4.29585
383 2 5.54544 10.5028 0.866653
384 2 5.31566 9.38625 15.0744
ITEM: TIMESTEP
400
ITEM: NUMBER OF ATOMS
384
ITEM: BOX BOUNDS pp pp pp
-1.3021218416963443e-01 1.5130212184169675e+01
-1.3021218416963443e-01 1.5130212184169675e+01
-1.3021218416963443e-01 1.5130212184169675e+01
ITEM: ATOMS id type x y z
1 1 4.57528 5.42621 12.6601
2 1 14.6135 3.83802 14.0943
3 1 7.3071 10.7617 3.45549
4 1 1.76764 3.5102 4.46275
5 1 13.5991 9.58942 9.93455
6 1 9.40715 0.0218897 15.019
7 1 13.3285 9.8388 6.42061
8 1 3.41591 12.9864 7.93539
9 1 3.44628 6.0224 2.48042
10 1 5.54372 7.57222 2.14881
11 1 13.8121 6.66933 2.03058
12 1 0.539402 10.0724 13.9541
13 1 -0.105919 5.23163 4.86846
14 1 9.63355 6.39735 8.05241
15 1 12.2309 6.78924 4.44357
16 1 10.2459 2.59727 6.74364
17 1 4.62958 3.75384 10.6316
18 1 6.84708 10.478 11.1647
19 1 7.96256 2.00075 14.4568
20 1 5.79333 13.4941 0.496133
21 1 15.0569 13.3952 10.0705
22 1 12.3126 1.94264 5.66049
23 1 10.7857 6.42447 13.4262
24 1 2.01778 7.98718 6.42469
25 1 10.7696 9.07041 5.68941
26 1 15.0589 7.90848 4.79512
27 1 1.65534 11.2325 4.53163
28 1 5.93367 0.541408 10.4533
29 1 12.3077 7.77371 0.0025371
30 1 1.9939 6.41792 12.069
31 1 3.32844 5.64785 5.27157
32 1 7.51597 11.8879 7.77864
33 1 3.22689 3.42871 1.87184
34 1 3.32969 12.9177 -0.0556224
35 1 -0.0181054 4.99222 7.48714
36 1 10.5438 14.7174 7.27568
37 1 1.0381 14.2269 1.72828
38 1 5.87922 0.864189 13.0475
39 1 0.401248 9.74848 2.92963
40 1 12.249 13.0055 12.3599
41 1 1.08474 11.9267 8.22529
42 1 13.4332 13.8776 15.0623
43 1 14.9898 14.8918 4.17914
44 1 8.30796 12.7163 11.8985
45 1 12.0231 5.88303 7.15758
46 1 9.71212 10.2586 7.98717
47 1 10.072 11.0141 12.8838
48 1 8.62216 12.3022 5.27775
49 1 3.68182 1.64583 13.9355
50 1 6.13637 13.4207 13.2254
51 1 4.14361 6.18842 8.71376
52 1 11.1566 0.132285 12.9163
53 1 7.40702 13.9667 3.48072
54 1 4.59043 2.13973 3.73628
55 1 12.1561 11.277 8.51557
56 1 8.9271 10.2578 0.033329
57 1 2.05156 1.45597 8.18317
58 1 8.52549 5.24755 11.6163
59 1 0.687313 9.47186 8.72701
60 1 10.1092 10.5667 3.66107
61 1 11.5799 3.82778 14.4096
62 1 10.109 6.98617 10.4771
63 1 4.62036 9.98079 9.78031
64 1 8.14432 8.08729 1.53295
65 1 13.9794 7.23841 8.0883
66 1 4.89892 14.6963 3.7578
67 1 5.72605 1.71416 6.46813
68 1 1.39939 0.0358194 10.3448
69 1 11.188 12.6096 1.91648
70 1 8.80036 3.95437 9.27892
71 1 15.0461 12.6518 5.63126
72 1 5.01314 11.0719 7.21939
73 1 0.78984 7.52166 14.1381
74 1 0.581831 4.20926 11.5777
75 1 15.1065 0.689822 12.5964
76 1 12.3475 12.7395 6.02228
77 1 6.28748 1.05056 1.09374
78 1 5.53299 8.0013 7.51744
79 1 4.73402 3.96377 14.9827
80 1 14.5489 1.74647 0.602932
81 1 8.17686 1.19555 3.06472
82 1 10.2962 2.05191 10.5486
83 1 1.95887 4.19542 8.8672
84 1 12.3784 14.8631 4.3192
85 1 9.66173 4.54349 4.91492
86 1 8.31355 6.17744 14.7797
87 1 2.6312 2.19189 11.5942
88 1 10.0715 14.5925 10.6522
89 1 14.7682 11.3259 0.979405
90 1 9.65724 3.20209 12.6754
91 1 7.61821 3.75569 3.4593
92 1 3.18032 12.6903 2.74925
93 1 13.0951 3.77326 7.9616
94 1 1.23989 7.69833 1.63686
95 1 13.2485 9.85441 12.6782
96 1 6.4447 2.81627 8.94608
97 1 6.06334 4.3801 5.55902
98 1 12.846 2.19619 12.5557
99 1 8.70152 7.22727 5.76975
100 1 2.87681 8.0813 9.95317
101 1 4.27597 12.0833 11.7275
102 1 0.978757 12.2245 12.1266
103 1 6.50375 8.42174 4.66646
104 1 9.22115 9.49941 10.5901
105 1 7.65824 14.3935 8.67928
106 1 1.0211 13.9576 14.0593
107 1 7.07368 3.8981 1.04713
108 1 12.4629 6.58582 11.0706
109 1 6.93067 9.42895 13.613
110 1 6.80369 6.98169 12.7872
111 1 3.8208 9.63747 5.05894
112 1 1.357 1.04601 5.67001
113 1 8.75664 12.9738 1.24636
114 1 3.64581 15.0027 6.28876
115 1 10.7261 8.22916 2.64448
116 1 3.85118 14.172 10.1187
117 1 5.19726 11.3236 1.8297
118 1 3.20712 10.8382 13.9882
119 1 12.2017 2.96122 1.71313
120 1 12.3855 13.4664 9.7806
121 1 13.7319 6.66206 13.3153
122 1 10.7486 0.7719 2.41434
123 1 1.79893 1.56652 0.867538
124 1 8.22313 0.709552 5.9585
125 1 12.3369 10.4456 0.167761
126 1 13.2785 4.04351 10.5871
127 1 12.9291 3.9924 4.33685
128 1 4.6875 9.471 0.169192
129 2 4.75401 4.86877 11.7953
130 2 4.16382 4.93516 13.3218
131 2 13.9403 4.56334 14.2775
132 2 15.0903 4.15363 13.3674
133 2 7.26757 9.80063 3.93112
134 2 8.16105 10.7137 3.03779
135 2 0.973568 4.07596 4.41484
136 2 2.12123 3.49354 3.57982
137 2 14.6264 9.51571 9.69414
138 2 13.355 9.34657 10.773
139 2 9.84966 0.290547 0.522529
140 2 8.83311 0.777477 14.8187
141 2 13.2274 10.1195 7.3168
142 2 13.4351 10.709 5.88248
143 2 3.59318 13.327 8.79278
144 2 3.61288 13.6775 7.23009
145 2 3.31635 5.08158 2.56154
146 2 3.29503 6.24626 3.51631
147 2 4.9333 8.19756 1.45471
148 2 4.84065 6.75419 2.08126
149 2 13.5253 6.64892 2.94361
150 2 14.7154 6.73247 2.09335
151 2 0.713314 9.05279 14.2138
152 2 0.0356589 10.4042 14.8811
153 2 14.378 4.68773 4.59608
154 2 14.9118 6.14665 4.55803
155 2 10.4579 6.07435 7.65548
156 2 9.03691 6.61426 7.25753
157 2 12.2062 6.60164 5.52468
158 2 11.5669 7.47678 4.228
159 2 9.86664 2.91524 7.67046
160 2 9.87018 3.41926 6.16761
161 2 4.04318 2.95444 10.9254
162 2 5.16705 3.30916 9.78576
163 2 7.57186 10.0152 10.9414
164 2 7.15909 11.4446 11.2052
165 2 7.63489 2.70962 -0.0895069
166 2 7.17452 1.51985 13.9724
167 2 6.13371 13.3905 14.8931
168 2 4.8223 13.7393 0.191861
169 2 14.0247 13.5056 10.0565
170 2 -0.00243705 12.9109 11.0057
171 2 11.3618 2.02336 6.16197
172 2 12.5399 1.04362 5.42779
173 2 11.3182 6.41926 12.6246
174 2 11.4413 6.79496 14.2305
175 2 1.15799 8.14415 5.93896
176 2 1.98281 8.42059 7.26653
177 2 11.7688 9.21016 5.91928
178 2 10.711 9.44263 4.9117
179 2 14.1609 8.15416 4.93073
180 2 -0.0831957 8.43814 4.01822
181 2 1.1643 11.7057 5.12845
182 2 2.24249 10.5132 4.77413
183 2 6.01052 1.25481 9.87376
184 2 5.23616 -0.0247763 9.97997
185 2 12.5296 8.82892 -0.0421962
186 2 12.8821 7.47178 0.752523
187 2 2.44162 7.1207 11.4641
188 2 2.73345 5.91586 12.5365
189 2 2.72631 6.26086 5.85784
190 2 2.71213 4.84444 5.22348
191 2 7.32848 12.7147 8.43756
192 2 7.73702 12.2217 6.80087
193 2 2.47779 2.63026 1.57828
194 2 3.73292 2.68555 2.44
195 2 3.22956 11.7834 14.9783
196 2 3.0104 12.7209 0.925936
197 2 0.0268332 4.92321 6.45573
198 2 14.867 5.61477 8.01308
199 2 10.7697 14.8727 8.14175
200 2 11.215 14.172 6.76031
201 2 1.7985 13.9482 2.12395
202 2 1.30932 15.0606 1.33904
203 2 6.1226 0.0303626 13.2436
204 2 6.06524 0.980031 11.9671
205 2 1.00682 8.96072 2.36943
206 2 0.935261 10.5145 3.42766
207 2 11.7665 13.7638 12.4387
208 2 11.8236 12.2402 12.739
209 2 2.07654 12.3298 8.35252
210 2 0.81288 12.4094 8.91989
211 2 13.6473 14.8856 14.8696
212 2 13.6142 13.3326 14.1529
213 2 14.0964 14.9045 3.91381
214 2 0.288699 14.6733 3.23086
215 2 8.59493 13.4239 11.2596
216 2 8.99984 12.2452 12.3688