ITEM: TIMESTEP
0
ITEM: NUMBER OF ATOMS
384
ITEM: BOX BOUNDS pp pp pp
-3.1180958401302572e-01 1.5311809584013066e+01
-3.1180958401302572e-01 1.5311809584013066e+01
-3.1180958401302572e-01 1.5311809584013066e+01
ITEM: ATOMS id type x y z
1 1 4.57679 5.50123 13.6944
2 1 14.8875 3.66367 14.1079
3 1 8.20115 10.8513 3.91518
4 1 1.55859 4.11103 4.68534
5 1 14.0046 11.0534 10.4291
6 1 10.1562 -0.0244194 -0.0179537
7 1 13.1461 9.78511 5.92123
8 1 3.48566 13.6848 7.87681
9 1 3.32305 6.30373 3.20589
10 1 5.30735 8.37688 2.36991
11 1 13.7801 6.32188 1.70807
12 1 0.692367 10.1945 14.1186
13 1 15.0627 5.43363 4.6639
14 1 9.98456 5.97612 7.92121
15 1 12.4056 7.19481 3.96576
16 1 9.83562 2.64919 6.79506
17 1 4.60459 4.17249 11.4106
18 1 7.55062 10.3381 11.1669
19 1 8.27543 1.89543 14.4455
20 1 5.83253 14.0038 0.549654
21 1 -0.277952 13.5963 10.2649
22 1 12.6457 2.09652 6.28487
23 1 10.7129 7.40871 14.2399
24 1 2.2119 7.88472 6.40809
25 1 10.4542 9.69036 5.97773
26 1 -0.282536 8.22967 4.81222
27 1 1.6652 11.2607 4.20606
28 1 6.17365 -0.094545 10.725
29 1 12.1932 8.4542 0.381712
30 1 2.29814 6.67565 12.652
31 1 3.74006 5.65533 5.77839
32 1 7.64075 12.3667 7.75101
33 1 2.57949 3.81144 2.08856
34 1 3.31976 13.3432 0.0677147
35 1 -0.0967938 5.37115 7.46928
36 1 11.1426 14.5448 7.59235
37 1 1.26174 14.8074 2.57217
38 1 6.41618 0.335516 13.3898
39 1 0.207637 9.92258 2.18818
40 1 12.6731 13.1901 12.8323
41 1 1.29363 11.9761 7.9846
42 1 13.2286 14.8362 0.439531
43 1 -0.123887 15.1905 5.01064
44 1 8.80795 12.7708 12.0788
45 1 12.4172 6.75949 6.79319
46 1 9.49869 10.6014 8.40823
47 1 10.544 10.9934 13.3575
48 1 8.99001 12.8372 5.44675
49 1 4.04829 1.51716 14.6149
50 1 6.69928 13.1999 13.7041
51 1 4.43379 6.10378 9.26553
52 1 11.4216 -0.0969869 13.0672
53 1 8.10878 14.4288 3.40524
54 1 4.3962 2.37166 3.28729
55 1 12.1316 11.4523 8.45349
56 1 8.7458 10.8517 -0.213292
57 1 1.53862 1.7361 8.48855
58 1 8.69585 5.89847 11.616
59 1 1.22107 9.19196 8.49846
60 1 10.635 10.5731 3.14594
61 1 11.4957 4.51089 15.2148
62 1 10.9209 6.7156 10.446
63 1 4.94638 10.4223 10.3546
64 1 7.94749 8.55464 1.09697
65 1 14.5919 7.80968 8.4877
66 1 5.26248 14.7619 3.62401
67 1 5.62202 2.26942 6.97039
68 1 1.29568 -0.0251437 10.348
69 1 11.6689 12.7598 1.5126
70 1 8.10674 4.34492 9.29769
71 1 15.2574 12.5827 5.71394
72 1 5.13758 11.4238 7.95676
73 1 0.807368 7.59384 14.5622
74 1 1.07308 4.35508 11.6836
75 1 -0.103901 0.899318 12.6958
76 1 12.4336 12.7126 5.99741
77 1 6.5124 0.898083 1.44852
78 1 5.22926 7.74021 7.34722
79 1 4.69818 3.85809 0.25821
80 1 14.6318 1.53081 0.260033
81 1 8.7843 1.26425 2.88569
82 1 10.1715 2.86217 10.2074
83 1 1.97586 4.56417 8.94346
84 1 12.6683 15.2799 4.82665
85 1 10.1623 4.44247 4.67024
86 1 8.26116 6.29332 15.2182
87 1 2.75694 2.33071 12.3211
88 1 10.1168 15.0402 10.6766
89 1 0.0214213 11.8389 0.424274
90 1 9.92368 3.73613 12.9889
91 1 7.93039 3.8304 3.09944
92 1 3.45334 12.7245 2.72154
93 1 13.7442 3.34545 8.32257
94 1 1.06378 7.50528 1.70711
95 1 13.5608 9.51663 12.896
96 1 6.16563 2.34739 9.6158
97 1 6.00658 4.12469 4.96415
98 1 13.0409 2.11594 12.6389
99 1 9.44842 7.22402 5.61094
100 1 3.08802 8.31472 10.412
101 1 4.27645 12.564 12.0172
102 1 0.247817 12.7339 12.6695
103 1 6.92237 8.32243 4.80264
104 1 10.2096 9.4039 11.0142
105 1 8.10819 14.6608 9.11245
106 1 0.724807 14.5893 14.8093
107 1 7.38606 3.87893 0.612739
108 1 13.59 6.17467 11.3541
109 1 6.57455 9.82429 14.0409
110 1 6.72525 7.05567 13.1783
111 1 3.66994 10.3273 5.96103
112 1 1.66543 1.60839 5.77048
113 1 9.05834 13.0173 1.11863
114 1 4.11235 0.213829 6.02437
115 1 10.3679 8.11545 2.36753
116 1 3.8208 14.5044 10.4834
117 1 6.27696 11.8524 2.07137
118 1 3.1417 11.1769 14.1451
119 1 12.971 3.21476 1.56998
120 1 12.4061 13.5738 10.1924
121 1 14.0948 6.56232 13.8874
122 1 11.4172 0.689063 2.37021
123 1 1.65778 1.52802 1.12949
124 1 7.74882 0.714644 6.86752
125 1 13.0368 10.8806 0.0461404
126 1 14.1536 3.59273 10.8941
127 1 12.9937 3.74289 4.44237
128 1 4.93288 10.2326 0.481908
129 2 4.52916 4.87676 12.9369
130 2 4.69703 5.06241 14.547
131 2 14.6886 4.58995 14.3163
132 2 0.0945933 3.63697 13.6264
133 2 7.74221 10.0755 4.24889
134 2 8.99342 10.7228 3.34745
135 2 0.788771 4.72927 4.53377
136 2 1.81069 3.95163 3.77685
137 2 14.4008 11.9252 10.4575
138 2 13.9069 10.7269 11.3647
139 2 10.6725 0.201823 0.765773
140 2 9.47367 0.652849 -0.0632908
141 2 13.5922 9.97565 6.76473
142 2 13.2152 10.5455 5.32572
143 2 3.67781 14.0964 8.7488
144 2 3.53939 14.3835 7.27865
145 2 3.09567 5.45978 2.78243
146 2 3.60518 6.19337 4.09913
147 2 5.08995 9.05489 1.76222
148 2 4.54185 7.79795 2.5309
149 2 13.4381 6.67871 2.59019
150 2 14.7355 6.25337 1.79471
151 2 0.77524 9.18308 14.2443
152 2 0.388115 10.6288 14.9234
153 2 14.1894 4.91997 4.56536
154 2 14.9228 6.4107 4.60147
155 2 10.8762 5.93786 7.61697
156 2 9.58879 6.53361 7.20672
157 2 12.1014 7.06547 4.8105
158 2 11.5829 7.27566 3.48345
159 2 9.70669 3.06202 7.62541
160 2 9.96186 3.35305 6.0781
161 2 3.89127 3.51534 11.556
162 2 5.31618 3.63484 11.0911
163 2 8.36256 9.80951 10.99
164 2 7.91946 11.2623 11.3115
165 2 7.80256 2.56448 14.9346
166 2 7.58248 1.21916 14.1315
167 2 6.10462 13.5421 -0.242407
168 2 4.85977 13.825 0.528199
169 2 14.4101 13.8153 10.1623
170 2 -0.0704958 13.4422 11.1966
171 2 11.7088 2.1063 6.54679
172 2 12.6961 1.18401 5.89058
173 2 10.9921 7.5299 13.3514
174 2 11.2636 8.01166 14.7268
175 2 1.57728 7.89927 5.7134
176 2 1.87051 8.36741 7.16573
177 2 11.4302 9.71213 6.20698
178 2 10.3486 10.1292 5.1128
179 2 14.4149 8.445 5.04536
180 2 0.00164071 8.8165 4.03796
181 2 1.02838 11.8189 4.67407
182 2 2.36173 10.8675 4.79517
183 2 6.32838 0.734699 10.265
184 2 5.21972 -0.301306 10.6492
185 2 12.568 9.37229 0.310345
186 2 12.8634 7.95827 0.824663
187 2 2.56428 7.41349 12.0109
188 2 3.14156 6.4193 13.0935
189 2 3.16723 6.41343 5.9805
190 2 3.10221 4.98312 5.63197
191 2 7.73547 13.1577 8.33842
192 2 8.06104 12.6116 6.87934
193 2 1.75422 3.38105 1.7562
194 2 3.25148 3.1727 2.47226
195 2 3.15037 12.6412 14.9757
196 2 3.16776 12.9566 0.983888
197 2 0.0720948 5.37286 6.52711
198 2 -0.245356 6.34024 7.61737
199 2 11.6512 14.8569 8.35832
200 2 11.802 13.9131 7.23812
201 2 2.07792 14.3411 2.56175
202 2 1.50629 0.044002 2.08403
203 2 6.3968 14.9261 13.4491
204 2 6.20534 0.425411 12.4267
205 2 0.660795 9.1318 1.85703
206 2 0.694078 10.391 2.87312
207 2 12.3708 14.0972 13.0916
208 2 12.1841 12.5232 13.366
209 2 2.09163 12.5603 7.87369
210 2 0.901668 12.2269 8.80367
211 2 13.6981 0.109016 0.335681
212 2 13.4443 14.3386 15.279
213 2 14.5376 15.2076 4.93591
214 2 0.228484 14.9795 4.13145
215 2 9.24837 13.4527 11.622
216 2 9.52013 12.2417 12.5392
217 2 12.875 7.30125 7.44426
218 2 13.1287 6.09272 6.70831
219 2 8.70364 11.2231 8.31889
220 2 9.67729 10.2938 7.51515
221 2 10.4955 10.2933 12.7118
222 2 10.0325 10.7711 14.1408
223 2 9.87115 13.0955 5.5737
224 2 8.95145 12.0108 4.93614
225 2 4.74251 0.928236 14.2575
226 2 3.48888 1.81195 13.8977
227 2 7.56401 13.1017 13.1985
228 2 6.02622 12.6782 13.2435
229 2 3.65548 5.64787 8.88705
230 2 4.53028 5.65688 10.1121
231 2 10.7483 -0.0654962 13.7661
232 2 11.7812 0.808853 13.0779
233 2 8.36482 -0.291862 3.46612
234 2 8.34757 14.0066 4.25098
235 2 5.1094 1.81781 2.95108
236 2 4.6411 2.96006 4.03817
237 2 12.5339 11.0417 9.22128
238 2 11.1841 11.2095 8.49369
239 2 8.60742 10.312 0.576946
240 2 8.69537 11.7883 0.0583599
241 2 1.42282 1.68337 7.50469
242 2 1.60998 2.65673 8.73322
243 2 8.87953 5.11923 12.1645
244 2 8.03029 6.40716 12.1505
245 2 1.95332 8.95172 9.16853
246 2 1.28006 10.1574 8.3047
247 2 11.2632 11.2403 2.79611
248 2 10.7957 9.70539 2.72449
249 2 11.5653 5.40273 -0.288322
250 2 11.1896 4.32648 14.2564
251 2 10.4204 6.65681 9.62663
252 2 10.2607 6.46258 11.0571
253 2 5.87632 10.1769 10.5904
254 2 4.94364 10.8143 9.46912
255 2 7.91802 7.6928 0.604333
256 2 7.17835 8.74025 1.63464
257 2 14.2008 7.92642 9.35992
258 2 -0.267797 8.44072 8.55252
259 2 6.16366 14.3915 3.8125
260 2 4.75946 14.0077 3.26281
261 2 6.35085 1.60272 6.90857
262 2 4.84301 1.75402 6.76165
263 2 1.34137 0.662419 9.62968
264 2 0.817817 14.7755 10.0578
265 2 10.8342 13.0339 1.10914
266 2 12.2496 13.5788 1.43103
267 2 7.99168 4.93257 10.0429
268 2 8.59208 4.87508 8.55834
269 2 -0.0863874 13.5026 5.64494
270 2 0.00602987 12.1735 6.56287
271 2 6.0476 11.6847 7.84187
272 2 4.65027 12.2574 7.8746
273 2 -0.10786 7.21382 14.4417
274 2 1.40859 7.20909 13.8607
275 2 1.10879 5.19843 12.1297
276 2 0.142322 4.18446 11.4107
277 2 0.192301 0.569522 11.8253
278 2 0.262058 0.216297 13.3227
279 2 13.325 12.966 5.76917
280 2 12.474 12.1815 6.79075
281 2 6.96454 1.33987 0.72514
282 2 6.22808 -0.0168944 1.14781
283 2 5.28424 6.95392 7.95734
284 2 5.69738 8.44349 7.79401
285 2 4.59695 2.96295 -0.156096
286 2 4.05776 3.8329 1.0606
287 2 14.2623 2.20361 0.861912
288 2 14.7961 2.02476 15.1013
289 2 7.90736 0.984376 2.41964
290 2 8.42535 2.08554 3.23522
291 2 9.33834 3.30929 9.83257
292 2 10.1754 1.88055 10.1119
293 2 1.75381 4.52695 9.90946
294 2 1.11552 4.78978 8.54253
295 2 12.2645 0.0873025 4.07993
296 2 12.0334 14.6435 5.15054
297 2 9.97133 5.30379 5.02216
298 2 9.51596 4.30903 3.95105
299 2 9.11176 6.41377 14.7882
300 2 7.57568 6.54 14.599
301 2 2.07189 2.92609 11.9449
302 2 2.69894 1.52435 11.845
303 2 10.8501 14.3815 10.4642
304 2 10.5118 -0.206863 11.478
305 2 0.274248 12.7719 0.61942
306 2 0.108425 11.2293 1.22179
307 2 9.70727 2.84376 13.3266
308 2 10.3129 3.49932 12.1129
309 2 7.16744 3.93944 3.6373
310 2 7.68964 3.77425 2.12389
311 2 2.7812 12.2345 3.34142
312 2 4.17512 12.108 2.65722
313 2 13.4252 2.63657 7.76521
314 2 14.4885 3.85196 7.85505
315 2 1.16553 7.50623 0.684607
316 2 1.80702 6.9489 2.01705
317 2 14.4305 9.58843 13.243
318 2 13.0187 10.0336 13.4694
319 2 5.70123 2.57075 8.68482
320 2 6.80813 3.05178 9.52933
321 2 5.35787 4.80808 5.12533
322 2 5.96938 3.53575 5.71789
323 2 13.0854 2.74416 13.3668
324 2 13.871 1.59988 12.7008
325 2 8.54415 7.16809 5.28465
326 2 9.76316 8.11779 5.62097
327 2 3.5805 7.58031 10.0651
328 2 3.76188 9.05652 10.3377
329 2 4.55808 11.8882 11.3243
330 2 3.56374 12.075 12.5347
331 2 0.334551 11.7965 12.6005
332 2 0.24849 12.8839 13.5924
333 2 6.35726 8.22802 5.65351
334 2 6.38531 8.12785 4.02112
335 2 10.214 9.5859 10.0692
336 2 10.6644 8.57403 11.1276
337 2 8.95214 14.8857 9.64428
338 2 7.3584 14.7538 9.70982
339 2 0.591563 15.0693 0.0182509
340 2 1.70203 14.3696 14.7724
341 2 6.4741 3.89198 0.306924
342 2 7.8908 4.74294 0.474307
343 2 13.7745 5.25403 11.174
344 2 12.6407 6.3597 11.1641
345 2 6.61181 10.3071 13.1711
346 2 7.38294 10.2018 14.4287
347 2 5.92965 6.53312 13.3142
348 2 6.65131 8.00804 13.4902
349 2 4.1508 10.9057 6.58172
350 2 3.72612 9.43762 6.27968
351 2 0.960879 1.05271 5.33877
352 2 1.48012 2.49213 5.40543
353 2 8.71011 13.4532 1.93204
354 2 8.99593 13.78 0.520382
355 2 3.28533 0.709593 5.89467
356 2 4.52263 -0.105961 5.1872
357 2 10.8957 8.12501 1.5533
358 2 9.392 8.09909 2.00114
359 2 2.85608 14.8006 10.6062
360 2 3.90293 13.7417 11.0449
361 2 6.48734 12.6937 1.54518
362 2 7.04029 11.6822 2.67807
363 2 2.24681 10.7375 14.3261
364 2 3.668 10.6767 14.8241
365 2 12.3482 3.69431 0.972113
366 2 13.2921 3.83378 2.19605
367 2 12.5073 12.8061 9.60602
368 2 12.5354 13.311 11.1419
369 2 13.9506 6.55755 12.8999
370 2 13.4462 7.1125 14.3857
371 2 11.8334 1.45816 2.05064
372 2 10.4376 0.894116 2.52875
373 2 0.844146 1.54638 0.605455
374 2 2.39804 1.38307 0.478242
375 2 7.77884 0.12269 7.66547
376 2 8.60235 1.23456 6.91956
377 2 12.4122 11.5105 0.551261
378 2 13.9301 11.2794 0.187093
379 2 13.8259 3.47873 9.96028
380 2 13.5184 3.1733 11.5056
381 2 12.9666 3.11167 5.2382
382 2 12.0906 4.05916 4.29522
383 2 5.48443 10.7696 1.07083
384 2 5.47524 10.05 -0.286949
ITEM: TIMESTEP
200
ITEM: NUMBER OF ATOMS
384
ITEM: BOX BOUNDS pp pp pp
-2.2989006347002316e-01 1.5229890063470055e+01
-2.0075667969305755e-01 1.5200756679693095e+01
-2.0224793522469486e-01 1.5202247935224751e+01
ITEM: ATOMS id type x y z
1 1 4.51312 5.68278 13.1138
2 1 14.5409 3.85592 14.057
3 1 7.67142 10.5882 3.72133
4 1 1.66504 3.85848 4.65923
5 1 13.6828 9.99289 10.2201
6 1 9.92829 0.142092 -0.133888
7 1 13.2933 9.58578 6.05157
8 1 3.49466 13.3975 7.68576
9 1 3.24154 6.34121 2.76119
10 1 5.52791 7.9572 2.39263
11 1 13.8322 6.54214 1.85171
12 1 0.531773 10.1289 13.6603
13 1 14.9324 5.44578 4.79261
14 1 9.91159 6.00264 7.89868
15 1 12.2028 7.04935 3.9406
16 1 9.99634 2.83036 6.80302
17 1 4.64117 3.83642 11.1574
18 1 7.29494 10.4675 11.2203
19 1 8.23444 2.01746 14.4967
20 1 5.73132 13.8034 0.499153
21 1 -0.118765 13.1689 9.89367
22 1 12.4913 1.98962 6.05148
23 1 10.7426 7.01429 14.0963
24 1 1.95855 7.81839 6.21043
25 1 10.4995 9.3132 5.72835
26 1 15.119 8.18513 4.63372
27 1 1.71586 11.3268 4.47683
28 1 6.04315 0.47865 10.5959
29 1 12.2351 8.00415 0.323609
30 1 2.13618 6.64269 12.3169
31 1 3.61295 5.59815 5.34964
32 1 7.69364 11.9989 7.84796
33 1 2.89341 3.63466 2.19177
34 1 2.91347 13.4288 0.176199
35 1 -0.112245 5.42614 7.55321
36 1 10.7774 14.6188 7.4649
37 1 1.37702 14.568 2.59395
38 1 6.06828 0.448033 13.3698
39 1 0.463723 9.96547 2.59499
40 1 12.3618 13.0532 12.5699
41 1 1.0151 12.1339 8.0388
42 1 13.8215 14.1467 0.241656
43 1 -0.0845854 14.9772 4.62387
44 1 8.59 12.6878 11.8098
45 1 12.4818 6.28244 6.72254
46 1 9.72613 10.3048 8.21059
47 1 10.5043 10.9538 12.8687
48 1 8.86626 12.3152 5.36038
49 1 3.86509 1.5982 14.3629
50 1 6.51441 13.1629 13.4323
51 1 3.99044 5.92153 9.065
52 1 11.2586 -0.00837223 12.9975
53 1 7.60996 14.1618 3.45529
54 1 4.57019 2.16635 3.40926
55 1 12.2167 11.1268 8.46057
56 1 8.80979 10.3662 -0.178294
57 1 1.75361 1.75831 8.48914
58 1 8.52533 5.58146 11.5325
59 1 1.25506 9.0919 8.37617
60 1 10.5925 10.5474 3.28215
61 1 11.6532 4.32075 14.8419
62 1 10.5957 6.89943 10.5487
63 1 4.89917 10.0462 9.88998
64 1 7.91795 8.05896 1.31342
65 1 14.3352 7.74299 8.54561
66 1 4.9661 14.7798 3.73272
67 1 5.67758 1.89011 6.78958
68 1 1.4287 0.446733 10.513
69 1 11.3264 12.4295 1.545
70 1 8.12983 4.2461 9.3678
71 1 15.1898 12.5409 5.72435
72 1 5.01063 11.2619 7.56894
73 1 0.815986 7.46408 14.4426
74 1 1.05021 4.32933 11.7621
75 1 -0.128297 0.713549 12.8617
76 1 12.5134 12.3858 6.14944
77 1 6.32947 0.965261 1.30549
78 1 5.55979 8.04603 7.15162
79 1 4.58671 3.99231 -0.13765
80 1 14.6169 1.66156 0.244008
81 1 8.7037 1.18725 2.72321
82 1 10.1705 2.58135 10.2468
83 1 1.71977 4.38202 8.77584
84 1 12.6516 15.1125 4.11091
85 1 10.2091 4.80127 4.97104
86 1 8.3688 6.20354 14.9626
87 1 2.72354 2.32064 12.1891
88 1 9.91226 14.6335 10.6681
89 1 -0.117091 11.2919 0.588554
90 1 9.65667 3.55394 12.7681
91 1 7.94636 3.86339 3.5677
92 1 3.23609 12.6166 2.672
93 1 13.3662 3.49526 8.10972
94 1 0.878155 7.50297 1.79149
95 1 13.3723 9.7892 12.7334
96 1 6.0825 2.6834 9.27483
97 1 5.76282 3.83225 5.06966
98 1 13.0826 1.91141 12.7411
99 1 8.97002 7.05927 5.39936
100 1 3.01766 8.15402 10.2792
101 1 4.53861 12.0466 12.0381
102 1 0.53368 12.6695 12.2806
103 1 6.73956 8.46219 4.76256
104 1 9.79179 9.53095 10.7458
105 1 7.9382 14.5601 8.96058
106 1 0.660828 14.3155 14.4304
107 1 7.40564 3.95412 0.633707
108 1 13.4448 6.68359 11.0299
109 1 6.71037 9.4394 13.5705
110 1 6.87546 6.92308 13.0727
111 1 3.52047 9.90753 5.78079
112 1 1.59605 1.29521 5.72801
113 1 9.00066 13.2052 0.946378
114 1 3.86782 0.112255 6.11746
115 1 10.4117 8.1615 2.25901
116 1 3.89241 14.1262 10.359
117 1 5.59319 11.5858 2.22721
118 1 3.21571 11.0711 14.1188
119 1 12.4521 2.86981 1.56463
120 1 12.5577 13.4702 10.0939
121 1 13.8636 6.36809 13.7377
122 1 11.2723 0.710747 2.14536
123 1 1.88794 1.30495 1.0825
124 1 8.07616 0.857243 6.60906
125 1 12.6971 10.5596 -0.202061
126 1 13.9934 3.88761 10.7046
127 1 12.5918 4.08449 4.0859
128 1 4.88001 9.70306 0.287411
129 2 4.61792 4.97521 12.3581
130 2 4.47259 5.31189 14.0765
131 2 14.1022 4.89897 14.1059
132 2 -0.162706 3.86759 13.4928
133 2 7.41467 9.60488 4.21501
134 2 8.78929 10.5569 3.52302
135 2 0.82994 4.32204 4.53538
136 2 2.16783 3.65449 3.88489
137 2 14.3733 10.7168 10.2644
138 2 13.4456 9.97752 11.2176
139 2 10.3656 0.224262 0.689927
140 2 9.1289 0.664854 15.0358
141 2 13.5134 9.51709 7.08117
142 2 13.3917 10.6629 5.98227
143 2 3.55345 13.9188 8.50173
144 2 3.54348 14.0244 6.89259
145 2 3.08481 5.63833 2.12187
146 2 3.35491 6.27904 3.65494
147 2 5.19312 8.63112 1.7035
148 2 4.82276 7.27138 2.52992
149 2 13.2564 6.50775 2.53161
150 2 14.7151 6.8571 2.17314
151 2 0.573988 9.08788 13.6323
152 2 0.376635 10.4904 14.6493
153 2 14.0108 4.93893 4.68555
154 2 14.7477 6.37031 4.52925
155 2 10.7773 5.99579 7.46379
156 2 9.3946 6.59634 7.07064
157 2 12.3397 7.15196 4.94809
158 2 11.3079 7.62683 3.72531
159 2 9.877 3.12442 7.80088
160 2 9.93772 3.63101 6.29597
161 2 4.18045 3.02694 11.3685
162 2 5.47679 3.54932 10.6969
163 2 8.16794 9.90445 11.0763
164 2 7.64053 11.4592 11.15
165 2 7.91359 2.86602 -0.101083
166 2 7.49882 1.68795 13.9109
167 2 6.13939 13.4646 14.992
168 2 4.85123 13.9337 0.299621
169 2 14.3834 13.4414 9.94785
170 2 0.0615998 12.9157 10.755
171 2 11.5519 1.99475 6.36522
172 2 12.4755 1.09126 5.55904
173 2 11.0065 7.09305 13.2064
174 2 11.2437 7.47097 14.7507
175 2 1.12552 7.85221 5.51507
176 2 1.69115 8.33636 6.95461
177 2 11.4555 9.05943 5.8945
178 2 10.6333 10.0148 4.9708
179 2 14.5904 8.89518 5.15464
180 2 0.12239 8.67098 3.9169
181 2 1.07184 11.9292 4.97311
182 2 2.45912 10.7839 5.03396
183 2 6.08081 1.25286 9.89359
184 2 5.13608 0.0880728 10.5604
185 2 12.444 9.05413 0.0894513
186 2 13.0834 7.32066 0.829776
187 2 2.42301 7.26544 11.5395
188 2 3.07159 6.41923 12.6469
189 2 3.15791 6.24733 5.69226
190 2 2.7919 4.95474 5.1294
191 2 7.66397 12.6609 8.28644
192 2 8.08942 12.1884 6.72266
193 2 2.46613 2.90725 1.5571
194 2 3.69057 3.07374 2.65433
195 2 2.82421 12.6583 15.0594
196 2 2.81704 13.0626 1.07151
197 2 15.169 5.54412 6.52721
198 2 15.0296 6.30019 7.7963
199 2 11.406 -0.0831464 7.75147
200 2 11.4529 13.8903 7.05516
201 2 2.23268 13.7668 2.67558
202 2 1.76014 15.1806 2.03143
203 2 6.16992 14.8395 13.4611
204 2 5.98181 0.444545 12.5369
205 2 0.984463 9.37727 2.23766
206 2 0.968408 10.3223 3.34538
207 2 11.7655 13.8693 12.6475
208 2 11.7227 12.2739 12.6401
209 2 1.82507 12.596 7.88397
210 2 0.475821 12.602 8.71048
211 2 13.5311 15.1978 0.182616
212 2 13.6144 13.8824 14.6425
213 2 14.2949 15.1866 4.37978
214 2 0.457835 14.8527 3.71939
215 2 8.95385 13.2479 11.1551
216 2 9.30473 12.2982 12.1775
217 2 12.9553 6.78673 7.37426
218 2 12.8487 5.35547 6.37588
219 2 8.86686 11.0339 8.2465
220 2 10.009 9.96539 7.38271
221 2 10.1543 10.2301 12.1692
222 2 9.93946 10.6333 13.5855
223 2 9.72019 12.0177 5.1936
224 2 8.62213 11.5569 4.70345
225 2 4.63395 1.17697 13.9675
226 2 3.436 1.83745 13.6086
227 2 7.38438 13.1614 12.8969
228 2 5.69039 12.8462 13.0415
229 2 3.39493 5.23943 8.90075
230 2 4.61301 5.6771 9.78077
231 2 10.9188 0.219717 13.8828
232 2 11.9321 0.771665 12.968
233 2 8.06719 14.8722 3.38927
234 2 8.19284 13.5484 4.17269
235 2 5.16472 1.56732 2.88713
236 2 5.25085 2.79576 4.00318
237 2 12.549 10.7133 9.39597
238 2 11.3178 10.7256 8.34325
239 2 8.40595 9.38567 0.343571
240 2 8.64575 11.1047 0.436982
241 2 1.53372 1.42016 7.39668
242 2 1.65358 2.71444 8.56547
243 2 8.84003 4.85642 12.21
244 2 7.86842 6.13904 12.0348
245 2 1.76952 8.68827 9.2179
246 2 1.34747 10.1698 8.18343
247 2 11.0162 11.3253 2.88616
248 2 10.6297 9.64238 2.76349
249 2 11.2018 5.25948 15.0187
250 2 10.9807 3.96215 14.0252
251 2 10.5511 6.2859 9.54727
252 2 9.71875 6.49529 10.8955
253 2 5.90256 9.8299 10.0129
254 2 4.89326 10.4478 9.05843
255 2 8.1539 7.25336 0.762863
256 2 7.06955 7.99144 1.84005
257 2 13.989 7.34464 9.51799
258 2 15.1733 8.32983 8.73957
259 2 5.88128 14.4153 3.68445
260 2 4.42418 13.9591 3.5358
261 2 6.47333 1.31103 6.69994
262 2 4.90022 1.29727 6.65539
263 2 1.60053 1.05665 9.69282
264 2 0.818885 15.0904 10.3441
265 2 10.4604 12.8657 1.1908
266 2 11.977 13.1003 1.57716
267 2 8.14456 4.72515 10.2558
268 2 8.64074 4.99821 8.6626
269 2 -0.0739467 13.4861 5.35291
270 2 0.398021 12.3944 6.4894
271 2 5.97471 11.4765 7.56633
272 2 4.60614 12.0826 7.59809
273 2 -0.134694 7.16786 14.2663
274 2 1.30002 7.23444 13.7972
275 2 1.52464 5.26057 11.8932
276 2 0.182113 4.22698 11.2999
277 2 0.334271 0.609305 11.9627
278 2 0.427145 0.530782 13.6092
279 2 13.6082 12.6076 5.99121
280 2 12.4258 11.808 6.91124
281 2 6.32897 1.56626 0.463358
282 2 6.35109 -0.127414 1.12116
283 2 5.30158 7.15642 7.37663
284 2 5.07493 8.62142 7.66935
285 2 4.45075 3.15953 14.6524
286 2 4.04413 4.08943 0.603078
287 2 14.1051 2.07521 0.911735
288 2 14.8194 2.40294 15.0336
289 2 8.06118 1.28946 1.9111
290 2 8.41682 2.05604 3.23209
291 2 9.6248 3.27941 9.56673
292 2 10.6313 1.6626 10.0319
293 2 1.30369 4.58658 9.54016
294 2 1.13941 4.9927 8.1119
295 2 12.2912 15.1676 3.36675
296 2 12.3082 14.3973 4.63029
297 2 9.89102 5.79273 4.92269
298 2 9.44953 4.28489 4.29033
299 2 9.00146 6.68287 14.636
300 2 7.75385 6.24991 14.1645
301 2 1.91513 2.98599 12.0178
302 2 2.30328 1.64463 11.5756
303 2 10.7373 14.471 10.2145
304 2 10.3159 14.8993 11.5772
305 2 -0.157903 12.1517 0.793096
306 2 0.0184083 10.8281 1.37624
307 2 9.06072 2.81104 13.3635
308 2 10.2436 3.05666 12.0645
309 2 7.13292 3.81114 4.06622
310 2 7.74633 4.05606 2.65313
311 2 2.53741 12.182 3.39291
312 2 3.99392 12.0174 2.78059
313 2 13.2564 2.79156 7.47332
314 2 14.1975 3.99316 7.83894
315 2 0.668003 7.46136 0.731682
316 2 1.65996 7.05413 2.15958
317 2 14.4039 9.83363 12.7131
318 2 12.9643 10.1833 13.3711
319 2 5.89507 2.65996 8.22852
320 2 6.87222 3.24468 9.03041
321 2 4.86761 4.6588 5.19438
322 2 5.65235 3.17811 6.01064
323 2 13.2046 2.57291 13.492
324 2 13.8736 1.28876 12.879
325 2 7.9479 7.27572 5.12992
326 2 9.45793 7.97336 5.54135
327 2 3.28516 7.43693 10.0344
328 2 3.65604 8.75691 10.0793
329 2 4.68933 11.4768 11.2708
330 2 4.18904 11.5107 12.6264
331 2 0.146918 11.7287 12.7329
332 2 0.392511 13.3222 12.9245
333 2 6.30785 8.34286 5.53844
334 2 6.25123 8.16756 3.8865
335 2 9.8089 9.77269 9.79855
336 2 10.3774 8.60219 10.9683
337 2 8.65269 14.6682 9.62197
338 2 7.2817 14.8657 9.51667
339 2 0.113724 14.7131 15.0172
340 2 1.54155 14.0404 14.9483
341 2 6.47397 4.13563 0.618752
342 2 7.79728 4.96556 0.603105
343 2 13.4435 5.8786 10.8328
344 2 12.4372 6.72524 10.8322
345 2 6.81359 9.82491 12.6803
346 2 7.32283 9.89984 14.2612
347 2 5.82604 6.3834 13.059
348 2 6.75737 8.08762 13.4502
349 2 3.96492 10.1696 6.63671
350 2 2.99138 9.08331 6.0289
351 2 0.831532 0.546682 5.2091
352 2 1.34902 2.21083 5.30323
353 2 8.77066 13.4175 1.88121
354 2 9.20559 13.9085 0.390868
355 2 2.94052 0.543066 6.04681
356 2 4.22576 -0.171814 5.17088
357 2 10.9731 8.2417 1.39802
358 2 9.55342 8.15419 1.81332
359 2 3.14414 14.7062 10.6938
360 2 4.11139 13.5727 11.188
361 2 5.7297 12.4265 1.55262
362 2 6.41925 11.2545 2.47907
363 2 2.4558 10.6927 13.7589
364 2 3.5415 10.2972 14.8076
365 2 12.1068 3.3445 0.824658
366 2 12.7287 3.42066 2.26868
367 2 12.5072 12.5325 9.59071
368 2 12.4083 13.2222 10.9863
369 2 13.8039 6.44203 12.8138
370 2 12.9661 6.40617 14.1817
371 2 11.6873 1.42233 1.87121
372 2 10.2702 1.01807 2.23068
373 2 1.01414 1.50708 0.743127
374 2 2.36965 1.25939 0.267328
375 2 8.0432 0.22038 7.36924
376 2 8.866 1.54579 6.71803
377 2 12.2982 11.164 0.46289
378 2 13.6671 10.8322 -0.0636626
379 2 13.884 3.62533 9.81661
380 2 13.4818 3.25464 11.1741
381 2 12.7258 3.29112 4.54466
382 2 11.6028 4.48118 4.31138
383 2 5.53716 10.4623 0.71402
384 2 5.19993 9.32181 14.9044
ITEM: TIMESTEP
400
ITEM: NUMBER OF ATOMS
384
ITEM: BOX BOUNDS pp pp pp
-1.7792508045011868e-01 1.5177925080450148e+01
-7.2874872329593998e-02 1.5072874872329617e+01
-1.0143935956222627e-01 1.5101439359562306e+01
ITEM: ATOMS id type x y z
1 1 4.50049 5.519 12.7873
2 1 14.8538 3.50125 14.0653
3 1 7.26999 10.4522 3.59607
4 1 1.83028 3.43357 4.40424
5 1 13.7479 9.68678 10.1203
6 1 9.36262 -0.0257608 14.9263
7 1 13.3833 9.34661 6.46244
8 1 3.39645 13.0176 7.93096
9 1 3.47852 5.97194 2.47148
10 1 5.56014 7.58854 2.062
11 1 14.0515 6.82948 2.09666
12 1 0.513957 10.0566 13.6774
13 1 -0.0387133 5.2709 4.73885
14 1 9.59145 6.29778 8.12981
15 1 12.2433 6.57496 4.32789
16 1 10.2713 2.80178 6.81043
17 1 4.52253 3.92692 10.6867
18 1 7.02684 10.4008 11.0487
19 1 7.93893 1.9699 14.4554
20 1 5.80659 13.2864 0.540645
21 1 -0.0966232 13.23 9.80968
22 1 12.1348 1.98241 5.26172
23 1 10.7945 6.44532 13.4665
24 1 1.90154 7.80704 6.23744
25 1 10.7145 9.09921 5.76629
26 1 15.0552 7.99839 4.78501
27 1 1.66958 11.1157 4.46002
28 1 5.90801 0.565559 10.5604
29 1 12.1562 7.64448 0.172065
30 1 1.95142 6.61112 12.0304
31 1 3.42099 5.5565 5.19372
32 1 7.6441 11.9232 7.81643
33 1 3.27093 3.50244 1.72564
34 1 3.23209 12.9966 0.144255
35 1 -0.169755 5.03558 7.32651
36 1 10.7547 14.5827 7.36954
37 1 1.18993 14.3438 1.97856
38 1 5.96771 0.734985 13.1763
39 1 0.395982 9.70023 2.76067
40 1 12.2738 13.1318 12.7267
41 1 1.19047 11.7837 8.20867
42 1 13.2495 13.6666 -0.0508892
43 1 15.0514 14.9105 4.3857
44 1 8.69616 12.6831 11.8508
45 1 12.0465 5.90873 7.16848
46 1 9.85394 10.165 8.02069
47 1 10.3626 10.847 12.7368
48 1 8.59198 12.0996 5.28884
49 1 3.7263 1.60621 14.1278
50 1 6.3801 13.2827 13.2027
51 1 4.10913 6.07689 8.55449
52 1 11.176 0.302143 12.5442
53 1 7.40426 13.8129 3.50166
54 1 4.5715 1.9801 3.46638
55 1 12.1592 11.3608 8.69648
56 1 9.0998 10.2274 -0.00791064
57 1 2.20274 1.52761 8.25709
58 1 8.70666 5.25208 11.5897
59 1 0.951686 9.20631 8.42899
60 1 10.0423 10.3829 3.53415
61 1 11.822 3.87073 14.1031
62 1 10.3132 6.85703 10.5098
63 1 4.73086 9.77994 9.66376
64 1 8.2085 7.86495 1.57276
65 1 14.2844 7.55275 7.97115
66 1 4.81625 14.4645 3.63631
67 1 5.72169 1.59263 6.57757
68 1 1.59817 0.0944743 10.4239
69 1 11.3972 12.5339 1.72327
70 1 8.383 3.96239 9.22033
71 1 -0.1369 12.545 5.69705
72 1 5.29109 11.0102 7.25981
73 1 0.743983 7.47586 14.1986
74 1 0.610633 4.30663 11.594
75 1 -0.0174888 1.07055 12.4527
76 1 12.399 12.4144 6.09245
77 1 6.28907 0.793385 1.35579
78 1 5.79736 7.911 7.44028
79 1 4.87184 4.02628 14.8827
80 1 14.4058 1.27463 0.435228
81 1 8.37509 1.00387 2.8792
82 1 10.0971 2.20585 10.4134
83 1 1.75877 4.22154 8.93578
84 1 12.3967 14.7344 3.95353
85 1 9.79241 4.66163 4.99604
86 1 8.26023 5.83557 14.8939
87 1 2.64175 2.27359 11.6307
88 1 10.1415 14.6271 10.296
89 1 14.7335 11.1707 0.738424
90 1 9.69771 3.10116 12.7418
91 1 7.74884 3.49705 3.62641
92 1 3.37921 12.4523 2.87739
93 1 13.0276 3.74993 7.78242
94 1 1.34378 7.67081 1.57171
95 1 13.3245 9.5203 12.7308
96 1 6.13106 2.80532 8.95858
97 1 5.81488 3.90706 5.31185
98 1 12.8105 2.35427 12.4308
99 1 8.68122 7.13285 5.85965
100 1 2.90655 7.93697 9.87896
101 1 4.37121 11.755 11.7385
102 1 1.08451 12.0977 11.7561
103 1 6.40779 8.33185 4.7783
104 1 9.30471 9.37955 10.5511
105 1 7.98372 14.4823 8.72803
106 1 0.916034 13.9618 14.0925
107 1 7.05884 3.81091 1.24194
108 1 12.8315 6.738 10.6416
109 1 6.8904 9.37131 13.4881
110 1 6.85835 6.81963 12.9914
111 1 3.6891 9.65802 5.25857
112 1 1.44702 1.12252 5.74014
113 1 8.70024 12.8241 1.11081
114 1 3.65103 14.8492 6.11105
115 1 10.692 8.03431 2.719
116 1 3.84782 14.0736 10.2229
117 1 5.42312 11.1081 1.94173
118 1 3.15289 10.9174 14.0496
119 1 12.4163 2.84402 1.33306
120 1 12.6522 13.4577 10.0548
121 1 13.809 6.60793 13.2715
122 1 10.8378 0.78078 2.16538
123 1 1.82419 1.5646 0.915449
124 1 8.32644 0.866457 6.12775
125 1 12.3671 10.2756 0.014951
126 1 13.4046 4.16336 10.6336
127 1 13.0648 4.15049 3.85645
128 1 4.64424 9.37251 0.0638649
129 2 4.58432 4.99668 11.9174
130 2 4.30558 4.98459 13.4912
131 2 14.2558 4.1162 14.5403
132 2 -0.105246 3.99707 13.3868
133 2 7.12727 9.49176 4.08401
134 2 8.17902 10.4021 3.27423
135 2 1.01291 3.95231 4.39432
136 2 2.02912 3.35013 3.46712
137 2 14.7485 9.91364 9.96616
138 2 13.4852 9.65946 11.0204
139 2 9.77304 0.215385 0.538674
140 2 8.76442 0.750978 14.7608
141 2 13.631 8.94411 7.31414
142 2 13.6004 10.3337 6.42951
143 2 3.54854 13.4148 8.77011
144 2 3.58906 13.6807 7.18641
145 2 3.30661 5.02167 2.43814
146 2 3.35856 6.05012 3.55164
147 2 5.01676 8.0681 1.16839
148 2 4.89491 6.73823 2.09311
149 2 13.8407 7.06783 2.98828
150 2 14.9902 6.91136 1.9974
151 2 0.6129 9.05568 14.11
152 2 0.0362267 10.4454 14.5977
153 2 14.5522 4.79199 4.38055
154 2 15.0746 6.21124 4.47615
155 2 10.5125 6.08197 7.75398
156 2 9.02129 6.57373 7.29865
157 2 12.052 6.3924 5.37314
158 2 11.501 7.13821 3.92409
159 2 10.286 3.33317 7.72206
160 2 9.93621 3.60705 6.15114
161 2 3.96299 3.04112 10.8776
162 2 5.08376 3.41389 9.83413
163 2 7.80208 9.94909 10.9517
164 2 7.30039 11.346 11.1001
165 2 7.62085 2.58452 0.0623895
166 2 7.17686 1.35246 13.991
167 2 6.25977 13.2288 14.9421
168 2 4.78675 13.383 0.251208
169 2 14.2017 13.47 9.93934
170 2 0.124789 12.7594 10.7253
171 2 11.2203 2.15333 5.82548
172 2 12.2875 1.01421 5.15411
173 2 11.0487 6.52176 12.5816
174 2 11.4364 7.06821 14.0444
175 2 0.994176 8.00702 5.83769
176 2 1.95504 8.26914 7.06199
177 2 11.6843 9.39005 5.84348
178 2 10.5702 9.41893 4.95545
179 2 14.3347 8.40075 5.25742
180 2 15.1777 8.53518 4.03553
181 2 1.19922 11.6579 5.02628
182 2 2.29126 10.4993 4.8204
183 2 5.84598 1.25091 9.93523
184 2 5.21303 15.0596 10.2091
185 2 12.3606 8.68104 0.121273
186 2 12.8139 7.36034 0.838439
187 2 2.42153 7.25318 11.3806
188 2 2.67025 6.1891 12.6002
189 2 2.70998 6.23812 5.60319
190 2 2.76034 4.75846 5.23208
191 2 7.60209 12.863 8.30096
192 2 7.83292 12.115 6.81236
193 2 2.45987 2.71649 1.56075
194 2 3.76815 2.83578 2.46827
195 2 3.14135 11.8861 14.9972
196 2 2.84814 12.7518 1.08254
197 2 0.134954 4.79248 6.31686
198 2 14.9011 5.72259 7.73272
199 2 11.0954 15.0283 8.09915
200 2 11.3802 14.3171 6.65792
201 2 1.98381 14.233 2.34741
202 2 1.41319 0.0433652 1.59559
203 2 6.335 -0.0663532 13.1974
204 2 6.05717 0.881165 12.0852
205 2 1.04721 8.87481 2.36895
206 2 0.921963 10.3815 3.40335
207 2 11.8279 13.9801 12.4056
208 2 11.6242 12.387 12.7074
209 2 2.13849 12.29 8.30842
210 2 0.923973 12.201 8.90311
211 2 13.8074 14.5138 0.0639546
212 2 13.1419 13.3802 14.0601
213 2 14.127 14.8347 4.03678
214 2 0.291803 14.64 3.47394
215 2 8.86272 13.3702 11.1347
216 2 9.3917 12.2303 12.2813
217 2 12.8501 6.46297 7.68034