ITEM: TIMESTEP
0
ITEM: NUMBER OF ATOMS
384
ITEM: BOX BOUNDS pp pp pp
-3.1180958401302572e-01 1.5311809584013066e+01
-3.1180958401302572e-01 1.5311809584013066e+01
-3.1180958401302572e-01 1.5311809584013066e+01
ITEM: ATOMS id type x y z
1 1 4.57679 5.50123 13.6944
2 1 14.8875 3.66367 14.1079
3 1 8.20115 10.8513 3.91518
4 1 1.55859 4.11103 4.68534
5 1 14.0046 11.0534 10.4291
6 1 10.1562 -0.0244194 -0.0179537
7 1 13.1461 9.78511 5.92123
8 1 3.48566 13.6848 7.87681
9 1 3.32305 6.30373 3.20589
10 1 5.30735 8.37688 2.36991
11 1 13.7801 6.32188 1.70807
12 1 0.692367 10.1945 14.1186
13 1 15.0627 5.43363 4.6639
14 1 9.98456 5.97612 7.92121
15 1 12.4056 7.19481 3.96576
16 1 9.83562 2.64919 6.79506
17 1 4.60459 4.17249 11.4106
18 1 7.55062 10.3381 11.1669
19 1 8.27543 1.89543 14.4455
20 1 5.83253 14.0038 0.549654
21 1 -0.277952 13.5963 10.2649
22 1 12.6457 2.09652 6.28487
23 1 10.7129 7.40871 14.2399
24 1 2.2119 7.88472 6.40809
25 1 10.4542 9.69036 5.97773
26 1 -0.282536 8.22967 4.81222
27 1 1.6652 11.2607 4.20606
28 1 6.17365 -0.094545 10.725
29 1 12.1932 8.4542 0.381712
30 1 2.29814 6.67565 12.652
31 1 3.74006 5.65533 5.77839
32 1 7.64075 12.3667 7.75101
33 1 2.57949 3.81144 2.08856
34 1 3.31976 13.3432 0.0677147
35 1 -0.0967938 5.37115 7.46928
36 1 11.1426 14.5448 7.59235
37 1 1.26174 14.8074 2.57217
38 1 6.41618 0.335516 13.3898
39 1 0.207637 9.92258 2.18818
40 1 12.6731 13.1901 12.8323
41 1 1.29363 11.9761 7.9846
42 1 13.2286 14.8362 0.439531
43 1 -0.123887 15.1905 5.01064
44 1 8.80795 12.7708 12.0788
45 1 12.4172 6.75949 6.79319
46 1 9.49869 10.6014 8.40823
47 1 10.544 10.9934 13.3575
48 1 8.99001 12.8372 5.44675
49 1 4.04829 1.51716 14.6149
50 1 6.69928 13.1999 13.7041
51 1 4.43379 6.10378 9.26553
52 1 11.4216 -0.0969869 13.0672
53 1 8.10878 14.4288 3.40524
54 1 4.3962 2.37166 3.28729
55 1 12.1316 11.4523 8.45349
56 1 8.7458 10.8517 -0.213292
57 1 1.53862 1.7361 8.48855
58 1 8.69585 5.89847 11.616
59 1 1.22107 9.19196 8.49846
60 1 10.635 10.5731 3.14594
61 1 11.4957 4.51089 15.2148
62 1 10.9209 6.7156 10.446
63 1 4.94638 10.4223 10.3546
64 1 7.94749 8.55464 1.09697
65 1 14.5919 7.80968 8.4877
66 1 5.26248 14.7619 3.62401
67 1 5.62202 2.26942 6.97039
68 1 1.29568 -0.0251437 10.348
69 1 11.6689 12.7598 1.5126
70 1 8.10674 4.34492 9.29769
71 1 15.2574 12.5827 5.71394
72 1 5.13758 11.4238 7.95676
73 1 0.807368 7.59384 14.5622
74 1 1.07308 4.35508 11.6836
75 1 -0.103901 0.899318 12.6958
76 1 12.4336 12.7126 5.99741
77 1 6.5124 0.898083 1.44852
78 1 5.22926 7.74021 7.34722
79 1 4.69818 3.85809 0.25821
80 1 14.6318 1.53081 0.260033
81 1 8.7843 1.26425 2.88569
82 1 10.1715 2.86217 10.2074
83 1 1.97586 4.56417 8.94346
84 1 12.6683 15.2799 4.82665
85 1 10.1623 4.44247 4.67024
86 1 8.26116 6.29332 15.2182
87 1 2.75694 2.33071 12.3211
88 1 10.1168 15.0402 10.6766
89 1 0.0214213 11.8389 0.424274
90 1 9.92368 3.73613 12.9889
91 1 7.93039 3.8304 3.09944
92 1 3.45334 12.7245 2.72154
93 1 13.7442 3.34545 8.32257
94 1 1.06378 7.50528 1.70711
95 1 13.5608 9.51663 12.896
96 1 6.16563 2.34739 9.6158
97 1 6.00658 4.12469 4.96415
98 1 13.0409 2.11594 12.6389
99 1 9.44842 7.22402 5.61094
100 1 3.08802 8.31472 10.412
101 1 4.27645 12.564 12.0172
102 1 0.247817 12.7339 12.6695
103 1 6.92237 8.32243 4.80264
104 1 10.2096 9.4039 11.0142
105 1 8.10819 14.6608 9.11245
106 1 0.724807 14.5893 14.8093
107 1 7.38606 3.87893 0.612739
108 1 13.59 6.17467 11.3541
109 1 6.57455 9.82429 14.0409
110 1 6.72525 7.05567 13.1783
111 1 3.66994 10.3273 5.96103
112 1 1.66543 1.60839 5.77048
113 1 9.05834 13.0173 1.11863
114 1 4.11235 0.213829 6.02437
115 1 10.3679 8.11545 2.36753
116 1 3.8208 14.5044 10.4834
117 1 6.27696 11.8524 2.07137
118 1 3.1417 11.1769 14.1451
119 1 12.971 3.21476 1.56998
120 1 12.4061 13.5738 10.1924
121 1 14.0948 6.56232 13.8874
122 1 11.4172 0.689063 2.37021
123 1 1.65778 1.52802 1.12949
124 1 7.74882 0.714644 6.86752
125 1 13.0368 10.8806 0.0461404
126 1 14.1536 3.59273 10.8941
127 1 12.9937 3.74289 4.44237
128 1 4.93288 10.2326 0.481908
129 2 4.52916 4.87676 12.9369
130 2 4.69703 5.06241 14.547
131 2 14.6886 4.58995 14.3163
132 2 0.0945933 3.63697 13.6264
133 2 7.74221 10.0755 4.24889
134 2 8.99342 10.7228 3.34745
135 2 0.788771 4.72927 4.53377
136 2 1.81069 3.95163 3.77685
137 2 14.4008 11.9252 10.4575
138 2 13.9069 10.7269 11.3647
139 2 10.6725 0.201823 0.765773
140 2 9.47367 0.652849 -0.0632908
141 2 13.5922 9.97565 6.76473
142 2 13.2152 10.5455 5.32572
143 2 3.67781 14.0964 8.7488
144 2 3.53939 14.3835 7.27865
145 2 3.09567 5.45978 2.78243
146 2 3.60518 6.19337 4.09913
147 2 5.08995 9.05489 1.76222
148 2 4.54185 7.79795 2.5309
149 2 13.4381 6.67871 2.59019
150 2 14.7355 6.25337 1.79471
151 2 0.77524 9.18308 14.2443
152 2 0.388115 10.6288 14.9234
153 2 14.1894 4.91997 4.56536
154 2 14.9228 6.4107 4.60147
155 2 10.8762 5.93786 7.61697
156 2 9.58879 6.53361 7.20672
157 2 12.1014 7.06547 4.8105
158 2 11.5829 7.27566 3.48345
159 2 9.70669 3.06202 7.62541
160 2 9.96186 3.35305 6.0781
161 2 3.89127 3.51534 11.556
162 2 5.31618 3.63484 11.0911
163 2 8.36256 9.80951 10.99
164 2 7.91946 11.2623 11.3115
165 2 7.80256 2.56448 14.9346
166 2 7.58248 1.21916 14.1315
167 2 6.10462 13.5421 -0.242407
168 2 4.85977 13.825 0.528199
169 2 14.4101 13.8153 10.1623
170 2 -0.0704958 13.4422 11.1966
171 2 11.7088 2.1063 6.54679
172 2 12.6961 1.18401 5.89058
173 2 10.9921 7.5299 13.3514
174 2 11.2636 8.01166 14.7268
175 2 1.57728 7.89927 5.7134
176 2 1.87051 8.36741 7.16573
177 2 11.4302 9.71213 6.20698
178 2 10.3486 10.1292 5.1128
179 2 14.4149 8.445 5.04536
180 2 0.00164071 8.8165 4.03796
181 2 1.02838 11.8189 4.67407
182 2 2.36173 10.8675 4.79517
183 2 6.32838 0.734699 10.265
184 2 5.21972 -0.301306 10.6492
185 2 12.568 9.37229 0.310345
186 2 12.8634 7.95827 0.824663
187 2 2.56428 7.41349 12.0109
188 2 3.14156 6.4193 13.0935
189 2 3.16723 6.41343 5.9805
190 2 3.10221 4.98312 5.63197
191 2 7.73547 13.1577 8.33842
192 2 8.06104 12.6116 6.87934
193 2 1.75422 3.38105 1.7562
194 2 3.25148 3.1727 2.47226
195 2 3.15037 12.6412 14.9757
196 2 3.16776 12.9566 0.983888
197 2 0.0720948 5.37286 6.52711
198 2 -0.245356 6.34024 7.61737
199 2 11.6512 14.8569 8.35832
200 2 11.802 13.9131 7.23812
201 2 2.07792 14.3411 2.56175
202 2 1.50629 0.044002 2.08403
203 2 6.3968 14.9261 13.4491
204 2 6.20534 0.425411 12.4267
205 2 0.660795 9.1318 1.85703
206 2 0.694078 10.391 2.87312
207 2 12.3708 14.0972 13.0916
208 2 12.1841 12.5232 13.366
209 2 2.09163 12.5603 7.87369
210 2 0.901668 12.2269 8.80367
211 2 13.6981 0.109016 0.335681
212 2 13.4443 14.3386 15.279
213 2 14.5376 15.2076 4.93591
214 2 0.228484 14.9795 4.13145
215 2 9.24837 13.4527 11.622
216 2 9.52013 12.2417 12.5392
217 2 12.875 7.30125 7.44426
218 2 13.1287 6.09272 6.70831
219 2 8.70364 11.2231 8.31889
220 2 9.67729 10.2938 7.51515
221 2 10.4955 10.2933 12.7118
222 2 10.0325 10.7711 14.1408
223 2 9.87115 13.0955 5.5737
224 2 8.95145 12.0108 4.93614
225 2 4.74251 0.928236 14.2575
226 2 3.48888 1.81195 13.8977
227 2 7.56401 13.1017 13.1985
228 2 6.02622 12.6782 13.2435
229 2 3.65548 5.64787 8.88705
230 2 4.53028 5.65688 10.1121
231 2 10.7483 -0.0654962 13.7661
232 2 11.7812 0.808853 13.0779
233 2 8.36482 -0.291862 3.46612
234 2 8.34757 14.0066 4.25098
235 2 5.1094 1.81781 2.95108
236 2 4.6411 2.96006 4.03817
237 2 12.5339 11.0417 9.22128
238 2 11.1841 11.2095 8.49369
239 2 8.60742 10.312 0.576946
240 2 8.69537 11.7883 0.0583599
241 2 1.42282 1.68337 7.50469
242 2 1.60998 2.65673 8.73322
243 2 8.87953 5.11923 12.1645
244 2 8.03029 6.40716 12.1505
245 2 1.95332 8.95172 9.16853
246 2 1.28006 10.1574 8.3047
247 2 11.2632 11.2403 2.79611
248 2 10.7957 9.70539 2.72449
249 2 11.5653 5.40273 -0.288322
250 2 11.1896 4.32648 14.2564
251 2 10.4204 6.65681 9.62663
252 2 10.2607 6.46258 11.0571
253 2 5.87632 10.1769 10.5904
254 2 4.94364 10.8143 9.46912
255 2 7.91802 7.6928 0.604333
256 2 7.17835 8.74025 1.63464
257 2 14.2008 7.92642 9.35992
258 2 -0.267797 8.44072 8.55252
259 2 6.16366 14.3915 3.8125
260 2 4.75946 14.0077 3.26281
261 2 6.35085 1.60272 6.90857
262 2 4.84301 1.75402 6.76165
263 2 1.34137 0.662419 9.62968
264 2 0.817817 14.7755 10.0578
265 2 10.8342 13.0339 1.10914
266 2 12.2496 13.5788 1.43103
267 2 7.99168 4.93257 10.0429
268 2 8.59208 4.87508 8.55834
269 2 -0.0863874 13.5026 5.64494
270 2 0.00602987 12.1735 6.56287
271 2 6.0476 11.6847 7.84187
272 2 4.65027 12.2574 7.8746
273 2 -0.10786 7.21382 14.4417
274 2 1.40859 7.20909 13.8607
275 2 1.10879 5.19843 12.1297
276 2 0.142322 4.18446 11.4107
277 2 0.192301 0.569522 11.8253
278 2 0.262058 0.216297 13.3227
279 2 13.325 12.966 5.76917
280 2 12.474 12.1815 6.79075
281 2 6.96454 1.33987 0.72514
282 2 6.22808 -0.0168944 1.14781
283 2 5.28424 6.95392 7.95734
284 2 5.69738 8.44349 7.79401
285 2 4.59695 2.96295 -0.156096
286 2 4.05776 3.8329 1.0606
287 2 14.2623 2.20361 0.861912
288 2 14.7961 2.02476 15.1013
289 2 7.90736 0.984376 2.41964
290 2 8.42535 2.08554 3.23522
291 2 9.33834 3.30929 9.83257
292 2 10.1754 1.88055 10.1119
293 2 1.75381 4.52695 9.90946
294 2 1.11552 4.78978 8.54253
295 2 12.2645 0.0873025 4.07993
296 2 12.0334 14.6435 5.15054
297 2 9.97133 5.30379 5.02216
298 2 9.51596 4.30903 3.95105
299 2 9.11176 6.41377 14.7882
300 2 7.57568 6.54 14.599
301 2 2.07189 2.92609 11.9449
302 2 2.69894 1.52435 11.845
303 2 10.8501 14.3815 10.4642
304 2 10.5118 -0.206863 11.478
305 2 0.274248 12.7719 0.61942
306 2 0.108425 11.2293 1.22179
307 2 9.70727 2.84376 13.3266
308 2 10.3129 3.49932 12.1129
309 2 7.16744 3.93944 3.6373
310 2 7.68964 3.77425 2.12389
311 2 2.7812 12.2345 3.34142
312 2 4.17512 12.108 2.65722
313 2 13.4252 2.63657 7.76521
314 2 14.4885 3.85196 7.85505
315 2 1.16553 7.50623 0.684607
316 2 1.80702 6.9489 2.01705
317 2 14.4305 9.58843 13.243
318 2 13.0187 10.0336 13.4694
319 2 5.70123 2.57075 8.68482
320 2 6.80813 3.05178 9.52933
321 2 5.35787 4.80808 5.12533
322 2 5.96938 3.53575 5.71789
323 2 13.0854 2.74416 13.3668
324 2 13.871 1.59988 12.7008
325 2 8.54415 7.16809 5.28465
326 2 9.76316 8.11779 5.62097
327 2 3.5805 7.58031 10.0651
328 2 3.76188 9.05652 10.3377
329 2 4.55808 11.8882 11.3243
330 2 3.56374 12.075 12.5347
331 2 0.334551 11.7965 12.6005
332 2 0.24849 12.8839 13.5924
333 2 6.35726 8.22802 5.65351
334 2 6.38531 8.12785 4.02112
335 2 10.214 9.5859 10.0692
336 2 10.6644 8.57403 11.1276
337 2 8.95214 14.8857 9.64428
338 2 7.3584 14.7538 9.70982
339 2 0.591563 15.0693 0.0182509
340 2 1.70203 14.3696 14.7724
341 2 6.4741 3.89198 0.306924
342 2 7.8908 4.74294 0.474307
343 2 13.7745 5.25403 11.174
344 2 12.6407 6.3597 11.1641
345 2 6.61181 10.3071 13.1711
346 2 7.38294 10.2018 14.4287
347 2 5.92965 6.53312 13.3142
348 2 6.65131 8.00804 13.4902
349 2 4.1508 10.9057 6.58172
350 2 3.72612 9.43762 6.27968
351 2 0.960879 1.05271 5.33877
352 2 1.48012 2.49213 5.40543
353 2 8.71011 13.4532 1.93204
354 2 8.99593 13.78 0.520382
355 2 3.28533 0.709593 5.89467
356 2 4.52263 -0.105961 5.1872
357 2 10.8957 8.12501 1.5533
358 2 9.392 8.09909 2.00114
359 2 2.85608 14.8006 10.6062
360 2 3.90293 13.7417 11.0449
361 2 6.48734 12.6937 1.54518
362 2 7.04029 11.6822 2.67807
363 2 2.24681 10.7375 14.3261
364 2 3.668 10.6767 14.8241
365 2 12.3482 3.69431 0.972113
366 2 13.2921 3.83378 2.19605
367 2 12.5073 12.8061 9.60602
368 2 12.5354 13.311 11.1419
369 2 13.9506 6.55755 12.8999
370 2 13.4462 7.1125 14.3857
371 2 11.8334 1.45816 2.05064
372 2 10.4376 0.894116 2.52875
373 2 0.844146 1.54638 0.605455
374 2 2.39804 1.38307 0.478242
375 2 7.77884 0.12269 7.66547
376 2 8.60235 1.23456 6.91956
377 2 12.4122 11.5105 0.551261
378 2 13.9301 11.2794 0.187093
379 2 13.8259 3.47873 9.96028
380 2 13.5184 3.1733 11.5056
381 2 12.9666 3.11167 5.2382
382 2 12.0906 4.05916 4.29522
383 2 5.48443 10.7696 1.07083
384 2 5.47524 10.05 -0.286949
ITEM: TIMESTEP
200
ITEM: NUMBER OF ATOMS
384
ITEM: BOX BOUNDS pp pp pp
-2.2989006347002316e-01 1.5229890063470055e+01
-2.0075667969305755e-01 1.5200756679693095e+01
-2.0224793522469486e-01 1.5202247935224751e+01
ITEM: ATOMS id type x y z
1 1 4.51508 5.68069 13.1294
2 1 14.5057 3.85095 14.0611
3 1 7.66327 10.5753 3.72244
4 1 1.67157 3.82597 4.66644
5 1 13.6773 10.0067 10.208
6 1 9.9312 0.163785 -0.123531
7 1 13.2884 9.58062 6.04046
8 1 3.47993 13.4141 7.72041
9 1 3.23883 6.34662 2.79109
10 1 5.5315 7.97012 2.38616
11 1 13.8041 6.54428 1.84722
12 1 0.526937 10.1096 13.6737
13 1 14.9197 5.41302 4.79467
14 1 9.88391 5.98868 7.8656
15 1 12.1876 7.04434 3.95151
16 1 9.98121 2.83612 6.8034
17 1 4.64154 3.84165 11.1743
18 1 7.30687 10.426 11.1878
19 1 8.27844 2.04261 14.4744
20 1 5.75767 13.7869 0.520142
21 1 -0.12318 13.1725 9.86752
22 1 12.5169 1.98765 6.04625
23 1 10.7383 7.00712 14.0748
24 1 1.94221 7.79515 6.20023
25 1 10.486 9.29403 5.7188
26 1 15.1088 8.2048 4.63438
27 1 1.7199 11.319 4.45929
28 1 6.03154 0.474748 10.5904
29 1 12.2141 7.97252 0.317266
30 1 2.1625 6.64881 12.3042
31 1 3.6217 5.57562 5.38598
32 1 7.70345 12.0171 7.84633
33 1 2.87078 3.63073 2.18548
34 1 2.88952 13.4028 0.180428
35 1 -0.133102 5.43222 7.57387
36 1 10.787 14.6109 7.43345
37 1 1.39633 14.5951 2.59197
38 1 6.05519 0.438175 13.3678
39 1 0.452142 9.96419 2.61369
40 1 12.3534 13.0757 12.5745
41 1 1.02056 12.1146 7.99595
42 1 13.7984 14.1388 0.232154
43 1 -0.0775886 15.0122 4.62719
44 1 8.56016 12.7022 11.8142
45 1 12.4912 6.27623 6.67423
46 1 9.72722 10.3225 8.21223
47 1 10.5295 10.9583 12.8834
48 1 8.88556 12.3222 5.3338
49 1 3.86829 1.60037 14.3935
50 1 6.55284 13.1787 13.4435
51 1 4.00969 5.93584 9.09697
52 1 11.2721 0.00444375 13.0106
53 1 7.61608 14.1801 3.45867
54 1 4.57518 2.17217 3.42242
55 1 12.239 11.1417 8.45401
56 1 8.79823 10.3398 -0.194698
57 1 1.7214 1.77043 8.48164
58 1 8.52063 5.5836 11.5643
59 1 1.23826 9.10692 8.38836
60 1 10.6009 10.6097 3.2814
61 1 11.6544 4.28921 14.8487
62 1 10.6004 6.88848 10.553
63 1 4.90683 10.0622 9.89456
64 1 7.91606 8.05237 1.32905
65 1 14.3248 7.76354 8.55002
66 1 4.95842 14.8034 3.75802
67 1 5.69506 1.90143 6.7791
68 1 1.43783 0.431102 10.5176
69 1 11.3551 12.4076 1.54342
70 1 8.11636 4.2622 9.3708
71 1 15.1697 12.5422 5.71264
72 1 5.00224 11.2811 7.56044
73 1 0.84564 7.4841 14.4515
74 1 1.06046 4.30915 11.7712
75 1 -0.120864 0.710359 12.8485
76 1 12.5234 12.4105 6.14726
77 1 6.33721 0.975661 1.3056
78 1 5.57674 8.05651 7.14347
79 1 4.58309 4.00551 -0.151527
80 1 14.6119 1.71318 0.223876
81 1 8.6938 1.21209 2.73372
82 1 10.1482 2.57931 10.2544
83 1 1.7225 4.38723 8.78626
84 1 12.6453 15.1155 4.1097
85 1 10.1766 4.80088 4.9882
86 1 8.39134 6.18254 14.984
87 1 2.70353 2.32535 12.1977
88 1 9.89664 14.6144 10.6667
89 1 -0.120375 11.275 0.566169
90 1 9.67635 3.54532 12.7697
91 1 7.96174 3.88964 3.57011
92 1 3.20874 12.601 2.67638
93 1 13.3692 3.46309 8.13864
94 1 0.867236 7.47321 1.78032
95 1 13.3817 9.77842 12.7202
96 1 6.08158 2.69335 9.28318
97 1 5.73781 3.8566 5.06386
98 1 13.1053 1.89981 12.7413
99 1 8.95125 7.05964 5.3839
100 1 3.04636 8.16613 10.2785
101 1 4.54726 12.0352 12.0225
102 1 0.536694 12.6634 12.244
103 1 6.77782 8.4624 4.76238
104 1 9.82648 9.54294 10.7608
105 1 7.94194 14.5402 8.95879
106 1 0.647883 14.3066 14.4312
107 1 7.40054 3.95898 0.644726
108 1 13.443 6.6984 11.0468
109 1 6.73235 9.43077 13.5792
110 1 6.87445 6.93524 13.089
111 1 3.53042 9.92056 5.77211
112 1 1.60809 1.28577 5.70812
113 1 9.03098 13.1895 0.931002
114 1 3.85855 0.0901034 6.09992
115 1 10.4281 8.19049 2.2542
116 1 3.88457 14.1393 10.35
117 1 5.58772 11.5691 2.24187
118 1 3.18701 11.0912 14.0991
119 1 12.4211 2.85978 1.59078
120 1 12.5507 13.4673 10.0644
121 1 13.8605 6.37475 13.7554
122 1 11.2701 0.694826 2.13087
123 1 1.883 1.29664 1.06413
124 1 8.07422 0.834879 6.62075
125 1 12.6981 10.5671 -0.186119
126 1 13.989 3.86743 10.7
127 1 12.5811 4.07076 4.06535
128 1 4.91207 9.69211 0.286106
129 2 4.61618 5.07813 12.3952
130 2 4.39049 5.38356 14.0513
131 2 14.0791 4.8926 14.0689
132 2 15.2157 3.94737 13.3926
133 2 7.4281 9.69707 4.18252
134 2 8.75607 10.5661 3.72318
135 2 0.884404 4.33157 4.57544
136 2 2.15355 3.73313 3.7924
137 2 14.3452 10.731 10.3834
138 2 13.3963 9.95079 11.177
139 2 10.4411 0.203931 0.79451
140 2 9.06294 0.729994 15.0567
141 2 13.544 9.58054 7.06077
142 2 13.4342 10.6416 5.96143
143 2 3.70482 13.8635 8.59637
144 2 3.58124 14.1108 6.90417
145 2 2.9383 5.61799 2.18521
146 2 3.37532 6.26724 3.74543
147 2 5.21775 8.76794 1.59616
148 2 4.82716 7.35473 2.63644
149 2 13.2308 6.51278 2.54151
150 2 14.795 6.87682 2.07588
151 2 0.612736 9.09052 13.6685
152 2 0.421816 10.4853 14.7379
153 2 14.0442 5.03676 4.63869
154 2 14.8063 6.22994 4.42594
155 2 10.8045 6.01768 7.39989
156 2 9.3688 6.62901 7.24614
157 2 12.2414 7.15916 4.9525
158 2 11.3905 7.58305 3.68558
159 2 9.83655 3.13066 7.77759
160 2 9.96602 3.64031 6.31282
161 2 4.18213 3.06214 11.3603
162 2 5.42948 3.55835 10.6689
163 2 8.18996 9.95001 11.1104
164 2 7.64113 11.391 11.1525
165 2 7.91218 2.73757 -0.0395887
166 2 7.53391 1.74044 13.9816
167 2 6.05596 13.4138 14.9866
168 2 4.88272 13.9723 0.379922
169 2 14.3574 13.4125 9.92817
170 2 0.102294 12.885 10.7807
171 2 11.6339 2.05144 6.4003
172 2 12.5306 1.10679 5.63967
173 2 11.0625 7.05275 13.167
174 2 11.3308 7.51545 14.7799
175 2 1.04856 7.80752 5.62934
176 2 1.77364 8.33316 6.99328
177 2 11.4292 9.08496 5.83571
178 2 10.713 10.0683 4.93945
179 2 14.5191 8.74782 5.24861
180 2 0.174089 8.68526 3.89278
181 2 1.04715 11.8994 4.98767
182 2 2.45008 10.7749 5.01085
183 2 6.06567 1.24547 9.87414
184 2 5.20703 0.127304 10.5325
185 2 12.6447 9.03423 0.124705
186 2 13.2394 7.34457 0.803788
187 2 2.41675 7.23453 11.5628
188 2 3.1398 6.33471 12.6695
189 2 3.30978 6.38006 5.71126
190 2 2.8274 4.94688 5.26524
191 2 7.68565 12.7987 8.36612
192 2 8.03806 12.1929 6.84275
193 2 2.50929 2.93469 1.5613
194 2 3.57859 2.93895 2.59396
195 2 2.69453 12.6842 15.0394
196 2 2.84671 13.0199 1.1286
197 2 -0.180873 5.54539 6.55069
198 2 15.0607 6.2559 7.75087
199 2 11.5031 0.0140662 7.65937
200 2 11.4241 13.824 7.032
201 2 2.22136 13.9042 2.74959
202 2 1.81068 15.1518 1.87377
203 2 6.24357 14.6772 13.3995
204 2 6.17649 0.441304 12.5334
205 2 1.0175 9.34423 2.22168
206 2 0.92672 10.4589 3.33887
207 2 11.7699 13.8616 12.7031
208 2 11.5891 12.2275 12.6097
209 2 1.80154 12.5868 7.81057
210 2 0.459742 12.8178 8.75685
211 2 13.503 15.0831 0.179654
212 2 13.5495 13.8623 14.7228
213 2 14.3682 -0.180572 4.23456
214 2 0.448174 14.9708 3.82217
215 2 9.00835 13.2587 11.2233
216 2 9.30633 12.2293 12.0958
217 2 12.9616 6.59461 7.41484
218 2 12.7702 5.40703 6.36911
219 2 8.87366 10.9933 8.23107
220 2 9.95801 10.014 7.25552
221 2 10.1973 10.2188 12.2386
222 2 9.96363 10.7132 13.5829
223 2 9.77385 11.9686 5.19916
224 2 8.5256 11.5062 4.71801
225 2 4.6151 1.07987 14.049
226 2 3.45585 1.8671 13.5787
227 2 7.4132 13.1251 12.8474
228 2 5.68917 12.9186 12.9883
229 2 3.35855 5.27704 8.93847
230 2 4.62446 5.77975 9.73753
231 2 10.8635 0.24456 13.7966
232 2 11.8986 0.763581 12.9093
233 2 8.01269 14.9676 3.44122
234 2 8.23373 13.6192 3.99952
235 2 5.15098 1.55903 2.90451
236 2 5.23244 2.75324 4.08138
237 2 12.6087 10.8303 9.36703
238 2 11.1897 10.821 8.37493
239 2 8.36237 9.44902 0.387215
240 2 8.68562 11.0514 0.417873
241 2 1.46062 1.49521 7.41235
242 2 1.7257 2.80238 8.56557
243 2 8.96132 4.87856 12.193
244 2 7.88755 6.20835 12.1149
245 2 1.79242 8.68245 9.24451
246 2 1.38096 9.958 8.17981
247 2 10.9482 11.3517 2.87791
248 2 10.6389 9.69373 2.64602
249 2 11.2241 5.22792 15.0351
250 2 11.0306 3.91191 14.0767
251 2 10.576 6.29359 9.70487
252 2 9.76469 6.40012 10.9011
253 2 5.98537 9.95296 10.0203
254 2 4.86063 10.6128 9.12961
255 2 8.15508 7.28667 0.712489
256 2 7.05122 8.03477 1.90305
257 2 13.9038 7.42203 9.5379
258 2 15.1426 8.3781 8.7093
259 2 5.94898 14.3261 3.68754
260 2 4.40508 13.8582 3.49953
261 2 6.56913 1.27771 6.61052
262 2 4.87475 1.35871 6.57096
263 2 1.50804 1.02108 9.63296
264 2 0.815871 15.1248 10.389
265 2 10.4378 12.8109 1.18958
266 2 11.9263 13.1063 1.6143
267 2 8.18589 4.70154 10.3604
268 2 8.59698 4.99186 8.66866
269 2 -0.00620668 13.4534 5.29038
270 2 0.389898 12.4475 6.51282
271 2 6.00771 11.4506 7.49563
272 2 4.58448 12.0849 7.65057
273 2 -0.200067 7.28162 14.1789
274 2 1.3503 7.26455 13.8084
275 2 1.60391 5.13323 11.8897
276 2 0.25943 4.22082 11.2989
277 2 0.402736 0.514713 11.9685
278 2 0.353378 0.595755 13.6303
279 2 13.6542 12.5862 5.99221
280 2 12.4654 11.7376 7.04184
281 2 6.30977 1.51924 0.564101
282 2 6.35137 -0.0836931 1.10547
283 2 5.29097 7.27263 7.30659
284 2 5.0189 8.62393 7.70715
285 2 4.29948 3.14084 14.7099
286 2 4.06244 4.09933 0.642253
287 2 14.1431 2.08307 0.891595
288 2 14.7756 2.46655 15.0769
289 2 8.06608 1.32328 1.99118
290 2 8.55922 2.10652 3.27383
291 2 9.63222 3.29801 9.66938
292 2 10.6397 1.68723 10.0542
293 2 1.25236 4.6109 9.59176
294 2 1.06716 4.8969 8.0725
295 2 12.2706 15.1848 3.30271
296 2 12.2889 14.3616 4.58096
297 2 9.85579 5.7147 4.848
298 2 9.62838 4.34896 4.38027
299 2 9.10173 6.57055 14.6561
300 2 7.73954 6.1969 14.2785
301 2 1.86717 3.03843 12.0392
302 2 2.30211 1.61831 11.4744
303 2 10.6624 14.5611 10.2057
304 2 10.3476 14.9811 11.5694
305 2 -0.183672 12.2133 0.695113
306 2 -0.0427975 10.8396 1.47589
307 2 9.08573 2.73443 13.3369
308 2 10.2281 2.9852 11.9675
309 2 7.14212 3.92607 4.12648
310 2 7.74416 4.034 2.64249
311 2 2.52782 12.1795 3.39761
312 2 4.02704 12.0386 2.80634
313 2 13.23 2.74896 7.4164
314 2 14.1901 3.98638 7.97227
315 2 0.675245 7.5858 0.722777
316 2 1.72541 7.0469 2.14321
317 2 14.3208 9.87383 12.8643
318 2 12.9748 10.2558 13.3268
319 2 5.86806 2.56226 8.22165
320 2 6.93552 3.35348 9.12491
321 2 5.01563 4.69791 5.22281
322 2 5.76462 3.22693 6.00572
323 2 13.1231 2.49549 13.5577
324 2 14.0172 1.41522 12.866
325 2 7.97893 7.28625 5.05734
326 2 9.48899 7.97074 5.4557
327 2 3.2247 7.34242 9.9741
328 2 3.66618 8.91595 10.0882
329 2 4.74174 11.5241 11.2113
330 2 4.05306 11.6092 12.6761
331 2 0.17562 11.844 12.7961
332 2 0.40856 13.3508 12.9561
333 2 6.2165 8.32826 5.42863
334 2 6.27847 8.27709 3.8404
335 2 9.89175 9.84334 9.77921
336 2 10.1949 8.63276 10.9112
337 2 8.61799 14.7881 9.51304
338 2 7.33334 14.8746 9.60487
339 2 0.00274952 14.7127 15.0925
340 2 1.6042 14.0361 14.8977
341 2 6.46674 4.24983 0.510778
342 2 7.84281 5.0463 0.620984
343 2 13.4289 5.77234 10.7559
344 2 12.4009 6.69248 10.7966
345 2 6.92989 9.91188 12.7902
346 2 7.31187 9.79668 14.2559
347 2 5.82745 6.41042 13.071
348 2 6.77114 8.04264 13.2376
349 2 3.88958 10.2446 6.61127
350 2 3.00438 9.07096 5.99555
351 2 0.821828 0.667057 5.22919
352 2 1.43451 2.17678 5.30424
353 2 8.57201 13.4295 1.78525
354 2 9.23926 13.9467 0.417451
355 2 2.964 0.506521 6.07635
356 2 4.23089 -0.020347 5.22936
357 2 11.0236 8.18587 1.50889
358 2 9.61423 8.093 1.83615
359 2 3.16182 14.7156 10.6475
360 2 4.15749 13.5597 11.1786
361 2 5.67181 12.374 1.61593
362 2 6.38575 11.1986 2.62065
363 2 2.36079 10.6535 13.7276
364 2 3.49762 10.4561 14.7821
365 2 12.1831 3.3342 0.786387
366 2 12.6969 3.38402 2.40087
367 2 12.5932 12.5835 9.6367
368 2 12.5673 13.3665 10.932
369 2 13.7292 6.44205 12.8894
370 2 12.9978 6.40132 14.1367
371 2 11.6832 1.41862 1.86892
372 2 10.4024 1.03667 2.29046
373 2 0.920934 1.50179 0.695069
374 2 2.34507 1.29281 0.246154
375 2 8.12375 0.296077 7.36357
376 2 8.73073 1.5577 6.73413
377 2 12.2894 11.2509 0.392816
378 2 13.6356 10.6984 -0.0845978
379 2 13.9934 3.61835 9.80832
380 2 13.5974 3.17949 11.1809
381 2 12.7066 3.30512 4.6949
382 2 11.5828 4.43025 4.29496
383 2 5.51585 10.402 0.581186
384 2 5.19176 9.43204 14.9486
ITEM: TIMESTEP
400
ITEM: NUMBER OF ATOMS
384
ITEM: BOX BOUNDS pp pp pp
-1.7792508045011868e-01 1.5177925080450148e+01
-7.2874872329593998e-02 1.5072874872329617e+01
-1.0143935956222627e-01 1.5101439359562306e+01
ITEM: ATOMS id type x y z
1 1 4.49016 5.52014 12.7768
2 1 14.8264 3.52321 14.0626
3 1 7.26288 10.4605 3.59576
4 1 1.80494 3.44437 4.40712
5 1 13.7456 9.69469 10.1099
6 1 9.36148 -0.0178699 14.9405
7 1 13.3983 9.35702 6.45098
8 1 3.37115 13.0102 7.94982
9 1 3.46117 5.96487 2.46581
10 1 5.54459 7.58574 2.03971
11 1 14.0521 6.83542 2.09678
12 1 0.525333 10.0544 13.6682
13 1 -0.0385875 5.27737 4.74801
14 1 9.5929 6.3179 8.10168
15 1 12.2342 6.5634 4.35025
16 1 10.2664 2.78935 6.82974
17 1 4.49433 3.94562 10.6983
18 1 7.013 10.3955 11.0405
19 1 7.91803 1.99712 14.4623
20 1 5.79264 13.2629 0.559135
21 1 -0.0777835 13.2423 9.82248
22 1 12.1382 1.98728 5.29683
23 1 10.7937 6.4481 13.453
24 1 1.90455 7.80821 6.23069
25 1 10.6911 9.09337 5.77885
26 1 15.0522 8.0136 4.76691
27 1 1.63155 11.1086 4.46743
28 1 5.90433 0.550344 10.5604
29 1 12.1688 7.65804 0.178078
30 1 1.95917 6.59225 12.0393
31 1 3.4135 5.55012 5.20121
32 1 7.64164 11.9533 7.8189
33 1 3.28178 3.49989 1.69821
34 1 3.20663 13.0034 0.126723
35 1 15.1599 5.02989 7.30936
36 1 10.7717 14.5765 7.37584
37 1 1.16385 14.3528 2.00092
38 1 5.95158 0.744281 13.1765
39 1 0.379709 9.64529 2.73756
40 1 12.2726 13.1157 12.7213
41 1 1.22177 11.7692 8.21425
42 1 13.2709 13.6552 -0.0413638
43 1 15.0483 14.9248 4.40922
44 1 8.6892 12.697 11.844
45 1 12.0548 5.91194 7.15224
46 1 9.86829 10.1569 8.02837
47 1 10.3584 10.8549 12.7344
48 1 8.59264 12.1463 5.31656
49 1 3.70455 1.61301 14.1253
50 1 6.3692 13.2879 13.1964
51 1 4.11529 6.08876 8.57973
52 1 11.1982 0.327966 12.5235
53 1 7.3915 13.7971 3.50795
54 1 4.56415 1.99513 3.45846
55 1 12.1415 11.3877 8.70731
56 1 9.09703 10.1967 -0.0161541
57 1 2.19847 1.51789 8.22824
58 1 8.72928 5.27133 11.6148
59 1 0.935844 9.16281 8.44057
60 1 10.0568 10.3864 3.52725
61 1 11.818 3.89181 14.1014
62 1 10.326 6.87158 10.5161
63 1 4.73904 9.78432 9.63165
64 1 8.23422 7.88625 1.58233
65 1 14.3175 7.55056 8.0161
66 1 4.7982 14.465 3.62975
67 1 5.73447 1.62827 6.58985
68 1 1.61171 0.120675 10.4001
69 1 11.4185 12.5225 1.70519
70 1 8.39836 3.9716 9.20629
71 1 -0.0854539 12.5214 5.72402
72 1 5.31597 11.0207 7.26301
73 1 0.760847 7.48101 14.1905
74 1 0.607057 4.29162 11.617
75 1 -0.0125811 1.07315 12.4597
76 1 12.3947 12.4185 6.0749
77 1 6.28962 0.78839 1.3734
78 1 5.80479 7.93061 7.4429
79 1 4.86655 4.03039 14.881
80 1 14.3606 1.27435 0.436722
81 1 8.35313 1.00521 2.8718
82 1 10.0979 2.18245 10.4039
83 1 1.78974 4.23429 8.92876
84 1 12.3915 14.7387 3.95377
85 1 9.79673 4.68861 4.99787
86 1 8.23676 5.8264 14.8823
87 1 2.64237 2.27332 11.642
88 1 10.1607 14.5891 10.3041
89 1 14.7454 11.1687 0.726213
90 1 9.69624 3.10207 12.7605
91 1 7.74262 3.49409 3.65146
92 1 3.37625 12.4556 2.87186
93 1 13.0026 3.74404 7.77773
94 1 1.32426 7.65726 1.57351
95 1 13.334 9.51198 12.73
96 1 6.13324 2.8193 8.95503
97 1 5.81663 3.90429 5.32666
98 1 12.7776 2.34656 12.4357
99 1 8.68476 7.15912 5.85295
100 1 2.88319 7.96422 9.93985
101 1 4.3789 11.7487 11.7264
102 1 1.08972 12.1013 11.7637
103 1 6.37911 8.29087 4.78479
104 1 9.32556 9.41927 10.5203
105 1 7.98086 14.4756 8.74371
106 1 0.929342 13.9451 14.1265
107 1 7.03969 3.82285 1.2246
108 1 12.8447 6.75245 10.6292
109 1 6.89331 9.38592 13.4909
110 1 6.87147 6.82261 13.0085
111 1 3.68524 9.65644 5.21928
112 1 1.44051 1.11307 5.75299
113 1 8.73621 12.8156 1.09896
114 1 3.63467 14.8708 6.11335
115 1 10.714 8.03418 2.71233
116 1 3.84111 14.071 10.2276
117 1 5.4229 11.1163 1.95669
118 1 3.15157 10.9024 14.0623
119 1 12.4231 2.83331 1.34133
120 1 12.6561 13.4877 10.0528
121 1 13.826 6.63442 13.2717
122 1 10.8194 0.751954 2.15554
123 1 1.8348 1.55556 0.91088
124 1 8.33191 0.89561 6.11329
125 1 12.3793 10.2839 0.0284617
126 1 13.4149 4.18115 10.6088
127 1 13.0692 4.15742 3.85292
128 1 4.66395 9.37673 0.0711884
129 2 4.49727 4.93171 11.9785
130 2 4.3116 4.93797 13.5584
131 2 14.3009 4.12622 14.5888
132 2 -0.0318662 4.00028 13.3283
133 2 7.26194 9.46495 4.07669
134 2 8.23822 10.4837 3.20487
135 2 1.03177 3.98621 4.41553
136 2 2.03248 3.32937 3.4974
137 2 14.7326 9.76547 10.0445
138 2 13.5746 9.74199 11.1229
139 2 9.70827 0.293157 0.538893
140 2 8.68151 0.752236 14.7379
141 2 13.6291 8.91696 7.35312
142 2 13.7058 10.2934 6.35321
143 2 3.49722 13.3987 8.73515
144 2 3.5343 13.6841 7.19152
145 2 3.28868 4.96896 2.42002
146 2 3.50605 5.9373 3.47105
147 2 5.15636 8.10091 1.26641
148 2 4.89574 6.81462 2.11306
149 2 13.8121 7.21461 2.94574
150 2 15.0169 6.92826 2.03452
151 2 0.786514 9.0797 14.0652
152 2 0.101157 10.4052 14.5345
153 2 14.4346 4.84716 4.39824
154 2 15.1532 6.11894 4.35571
155 2 10.5128 6.18391 7.81614
156 2 9.01148 6.5783 7.28388
157 2 12.0302 6.3711 5.3762
158 2 11.4873 7.09568 3.84066
159 2 10.3229 3.18837 7.7623
160 2 9.88385 3.66065 6.19736
161 2 4.0379 3.07424 10.9401
162 2 5.15619 3.45924 9.80068
163 2 7.79246 9.95191 10.7875
164 2 7.25989 11.3001 11.0048
165 2 7.68052 2.58076 0.00747014
166 2 7.21018 1.49756 14.0913
167 2 6.38619 13.1554 14.9724
168 2 4.72604 13.3132 0.270287
169 2 14.2373 13.634 9.96256
170 2 0.217136 12.6305 10.6265
171 2 11.2399 2.13382 5.78426
172 2 12.222 1.07554 5.20251
173 2 11.0769 6.47351 12.4931
174 2 11.339 7.08361 13.9391
175 2 0.992766 8.00507 5.77921
176 2 1.95694 8.30824 7.00134
177 2 11.687 9.22155 5.74309
178 2 10.5648 9.45397 4.89892
179 2 14.348 8.43856 5.19434
180 2 -0.171642 8.5923 4.07259
181 2 1.13669 11.7046 4.99388
182 2 2.33114 10.5937 4.84716
183 2 5.88494 1.23614 9.96078
184 2 5.2126 15.0174 10.2265
185 2 12.3978 8.67414 0.154469
186 2 12.7276 7.40829 0.782789
187 2 2.42087 7.21603 11.4058
188 2 2.76728 6.25805 12.4299
189 2 2.69178 6.28122 5.64603
190 2 2.83475 4.80881 5.16991
191 2 7.68129 12.7544 8.24193
192 2 7.86637 12.1173 6.76661
193 2 2.41906 2.77318 1.53444
194 2 3.74541 2.80063 2.35602
195 2 3.23133 11.9426 14.8448
196 2 2.8689 12.7646 0.998074
197 2 0.219806 4.8969 6.36824
198 2 14.9463 5.86426 7.53101
199 2 11.1219 15.0544 8.03096
200 2 11.3474 14.1626 6.70926
201 2 2.08547 14.1953 2.33285
202 2 1.35554 0.106726 1.59909
203 2 6.37633 15.031 13.1733
204 2 5.91878 0.952007 12.071
205 2 1.05619 8.96027 2.38489
206 2 1.02166 10.3017 3.43164
207 2 11.85 13.9023 12.4995
208 2 11.5817 12.458 12.6427
209 2 2.16721 12.2225 8.23966
210 2 0.752912 12.1586 8.93141
211 2 13.7294 14.4714 0.159305
212 2 13.1701 13.3507 14.1086
213 2 14.154 14.8405 4.02812
214 2 0.422398 14.5881 3.48733
215 2 8.92666 13.3808 11.157
216 2 9.50598 12.3137 12.265
217 2 12.8465 6.36226 7.76072
218 2 12.1 4.91947 7.50827