ITEM: TIMESTEP
0
ITEM: NUMBER OF ATOMS
384
ITEM: BOX BOUNDS pp pp pp
0.0000000000000000e+00 1.5645677530000000e+01
0.0000000000000000e+00 1.4707145290000000e+01
0.0000000000000000e+00 1.8073037029999998e+01
ITEM: ATOMS id type x y z
1 1 1.38 1.76 3.37
2 1 5.2 4.47 1.11
3 1 6.59 5.39 3.31
4 1 5.28 4.49 5.56
5 1 2.59 0.84 5.67
6 1 2.69 5.43 5.56
7 1 5.2 1.71 1.07
8 1 5.2 1.73 5.58
9 1 1.32 4.61 7.82
10 1 1.3 4.52 3.36
11 1 2.61 5.41 1.1
12 1 2.59 0.82 1.07
13 1 6.54 0.87 3.33
14 1 6.54 0.88 7.83
15 1 6.51 5.4 7.86
16 1 1.35 1.85 7.92
17 1 9.2 1.76 3.37
18 1 13.05 4.55 1.15
19 1 14.35 5.46 3.4
20 1 13.1 4.49 5.66
21 1 10.41 0.84 5.67
22 1 10.51 5.43 5.65
23 1 13.07 1.79 1.07
24 1 13.02 1.73 5.58
25 1 9.15 4.61 7.91
26 1 9.2 4.52 3.4
27 1 10.45 5.49 1.15
28 1 10.49 0.82 1.12
29 1 14.36 0.87 3.33
30 1 14.36 0.88 7.83
31 1 14.36 5.48 7.9
32 1 9.17 1.85 7.92
33 1 1.3 9.11 3.32
34 1 5.3 11.9 1.11
35 1 6.53 12.81 3.4
36 1 5.2 11.84 5.61
37 1 2.59 8.19 5.58
38 1 2.61 12.79 5.61
39 1 5.25 9.14 1.16
40 1 5.2 9.08 5.67
41 1 1.32 11.96 7.91
42 1 1.38 11.87 3.31
43 1 2.69 12.77 1.06
44 1 2.67 8.17 1.12
45 1 6.49 8.14 3.42
46 1 6.49 8.16 7.92
47 1 6.53 12.83 7.81
48 1 1.35 9.21 7.83
49 1 9.09 9.19 3.37
50 1 13.13 11.9 1.11
51 1 14.44 12.82 3.35
52 1 13.1 11.84 5.56
53 1 10.41 8.19 5.58
54 1 10.51 12.79 5.65
55 1 12.99 9.14 1.12
56 1 13.02 9.08 5.67
57 1 9.12 11.89 7.86
58 1 9.15 11.95 3.4
59 1 10.51 12.77 1.15
60 1 10.38 8.25 1.12
61 1 14.29 8.22 3.37
62 1 14.36 8.24 7.92
63 1 14.36 12.83 7.81
64 1 9.12 9.13 7.83
65 1 1.35 1.83 12.45
66 1 5.2 4.47 10.14
67 1 6.59 5.39 12.34
68 1 5.3 4.56 14.65
69 1 2.67 0.84 14.66
70 1 2.69 5.43 14.6
71 1 5.28 1.71 10.15
72 1 5.25 1.81 14.61
73 1 1.32 4.61 16.85
74 1 1.32 4.59 12.35
75 1 2.63 5.49 10.09
76 1 2.64 0.89 10.2
77 1 6.57 0.79 12.41
78 1 6.54 0.88 16.87
79 1 6.53 5.48 16.94
80 1 1.35 1.85 16.86
81 1 9.2 1.76 12.41
82 1 13.02 4.47 10.14
83 1 14.35 5.46 12.34
84 1 13.05 4.57 14.6
85 1 10.46 0.91 14.71
86 1 10.46 5.51 14.69
87 1 13.1 1.71 10.15
88 1 13.07 1.81 14.61
89 1 9.15 4.61 16.94
90 1 9.2 4.52 12.44
91 1 10.45 5.49 10.18
92 1 10.49 0.82 10.16
93 1 14.39 0.79 12.41
94 1 14.36 0.88 16.87
95 1 14.33 5.4 16.89
96 1 9.17 1.85 16.96
97 1 1.3 9.11 12.45
98 1 5.28 11.83 10.1
99 1 6.59 12.74 12.34
100 1 5.3 11.92 14.65
101 1 2.59 8.19 14.71
102 1 2.69 12.79 14.6
103 1 5.2 9.07 10.2
104 1 5.17 9.16 14.66
105 1 1.38 11.89 16.85
106 1 1.38 11.87 12.35
107 1 2.71 12.84 10.14
108 1 2.56 8.25 10.16
109 1 6.49 8.14 12.46
110 1 6.46 8.24 16.91
111 1 6.61 12.83 16.89
112 1 1.3 9.13 16.96
113 1 9.09 9.19 12.41
114 1 13.13 11.9 10.14
115 1 14.41 12.74 12.44
116 1 13.1 11.84 14.69
117 1 10.38 8.27 14.66
118 1 10.53 12.86 14.64
119 1 12.99 9.14 10.15
120 1 13.02 9.08 14.7
121 1 9.23 11.96 16.9
122 1 9.23 11.95 12.39
123 1 10.51 12.77 10.09
124 1 10.38 8.25 10.16
125 1 14.29 8.22 12.41
126 1 14.31 8.16 16.96
127 1 14.44 12.83 16.89
128 1 9.09 9.21 16.91
129 2 0.46 1.48 3.37
130 2 1.33 2.71 3.37
131 2 5.68 4.81 1.86
132 2 5.67 4.81 0.35
133 2 6.13 5.1 4.1
134 2 6.56 6.34 3.34
135 2 4.38 4.84 5.6
136 2 5.7 4.83 6.36
137 2 2.17 1.18 4.88
138 2 3.49 1.17 5.63
139 2 2.23 5.15 6.35
140 2 2.65 6.39 5.59
141 2 5.65 1.43 1.86
142 2 5.23 2.67 1.1
143 2 5.23 2.69 5.61
144 2 5.65 1.45 6.37
145 2 1.78 4.88 8.61
146 2 1.33 3.65 7.85
147 2 1.78 4.85 4.11
148 2 1.78 4.85 2.6
149 2 3.52 5.14 1.1
150 2 2.64 6.37 1.11
151 2 3.49 1.15 1.11
152 2 2.17 1.16 1.87
153 2 6.09 1.14 4.12
154 2 6.53 14.6171 3.37
155 2 6.09 1.15 8.63
156 2 6.53 14.6371 7.86
157 2 7.43 5.14 7.86
158 2 6.53 6.36 7.86
159 2 1.77 1.51 7.13
160 2 0.46 1.51 7.89
161 2 9.16 2.71 3.37
162 2 8.28 1.48 3.37
163 2 13.06 3.59 1.12
164 2 13.5 4.82 0.36
165 2 13.94 5.12 2.61
166 2 15.25 5.14 3.36
167 2 13.52 4.82 4.86
168 2 12.21 4.84 5.62
169 2 11.31 1.17 5.63
170 2 10 1.18 4.88
171 2 10.47 6.39 5.62
172 2 10.05 5.15 4.86
173 2 12.18 1.46 1.11
174 2 13.49 1.45 1.86
175 2 13.05 2.69 5.61
176 2 13.48 1.45 6.37
177 2 9.61 4.88 7.11
178 2 9.16 3.65 7.88
179 2 8.3 4.84 3.36
180 2 9.61 4.85 2.61
181 2 10.04 5.17 0.35
182 2 11.35 5.14 1.11
183 2 10.02 1.16 0.36
184 2 10.02 1.16 1.88
185 2 13.91 1.14 4.12
186 2 14.35 14.6171 3.37
187 2 13.91 1.15 8.63
188 2 14.36 14.6371 7.86
189 2 13.94 5.14 7.11
190 2 15.26 5.16 7.86
191 2 8.28 1.51 7.89
192 2 9.59 1.51 7.13
193 2 1.75 8.83 4.12
194 2 1.33 10.07 3.36
195 2 4.39 12.19 1.1
196 2 5.25 10.94 1.11
197 2 7.43 12.49 3.36
198 2 6.12 12.48 2.61
199 2 5.68 12.17 4.85
200 2 5.68 12.18 6.37
201 2 2.17 8.54 6.37
202 2 3.49 8.52 5.61
203 2 2.64 13.74 5.61
204 2 3.52 12.51 5.61
205 2 4.35 8.81 1.13
206 2 5.66 8.81 0.36
207 2 5.23 10.04 5.63
208 2 5.65 8.8 4.88
209 2 1.78 12.24 7.11
210 2 1.34 11.01 7.88
211 2 0.48 12.2 3.35
212 2 1.79 12.21 4.11
213 2 2.23 12.49 1.85
214 2 2.65 13.72 1.09
215 2 2.19 8.52 1.88
216 2 2.2 8.52 0.36
217 2 7.38 8.49 3.39
218 2 6.07 8.48 2.63
219 2 6.07 8.5 7.13
220 2 7.38 8.51 7.89
221 2 6.12 12.49 8.61
222 2 7.43 12.51 7.85
223 2 0.46 8.86 7.86
224 2 1.77 8.86 8.62
225 2 9.57 8.85 4.13
226 2 9.57 8.84 2.61
227 2 12.21 12.19 1.1
228 2 13.08 10.94 1.11
229 2 13.95 12.48 2.6
230 2 13.95 12.48 4.11
231 2 13.52 12.18 6.36
232 2 12.21 12.19 5.6
233 2 11.31 8.52 5.61
234 2 10 8.54 6.37
235 2 10.47 13.74 5.62
236 2 10.05 12.51 4.86
237 2 13.47 8.8 1.87
238 2 13.47 8.81 0.36
239 2 13.48 8.8 4.88
240 2 13.05 10.04 5.63
241 2 9.6 12.22 8.62
242 2 9.6 12.22 7.11
243 2 9.16 10.99 3.37
244 2 9.61 12.22 2.61
245 2 10.48 13.72 1.13
246 2 10.05 12.49 0.35
247 2 11.3 8.53 1.12
248 2 10.43 7.29 1.11
249 2 15.2 8.51 3.37
250 2 14.34 7.26 3.37
251 2 14.36 7.28 7.88
252 2 13.91 8.52 7.13
253 2 15.26 12.51 7.85
254 2 13.94 12.49 8.61
255 2 9.15 10.09 7.86
256 2 9.57 8.85 8.62
257 2 1.77 1.49 11.66
258 2 0.46 1.49 12.42
259 2 5.68 4.81 10.9
260 2 5.67 4.81 9.38
261 2 6.56 6.34 12.38
262 2 6.13 5.1 13.14
263 2 4.39 4.85 14.65
264 2 5.25 3.61 14.65
265 2 2.19 1.18 13.9
266 2 2.19 1.18 15.42
267 2 2.23 5.15 15.39
268 2 2.65 6.39 14.63
269 2 4.36 1.44 10.15
270 2 5.24 2.67 10.15
271 2 4.35 1.48 14.65
272 2 5.66 1.47 15.41
273 2 1.78 4.88 17.65
274 2 1.33 3.65 16.89
275 2 1.78 4.87 13.14
276 2 1.34 3.64 12.39
277 2 2.21 5.16 10.89
278 2 3.52 5.14 10.13
279 2 2.19 1.18 9.41
280 2 2.63 14.6471 10.16
281 2 6.09 1.13 11.65
282 2 6.09 1.14 13.17
283 2 6.53 14.6371 16.9
284 2 6.09 1.15 17.67
285 2 7.43 5.16 16.9
286 2 6.12 5.14 16.15
287 2 0.46 1.51 16.89
288 2 1.77 1.51 17.66
289 2 8.28 1.48 12.41
290 2 9.16 2.71 12.4
291 2 13.5 4.81 9.38
292 2 13.5 4.81 10.9
293 2 15.25 5.14 12.39
294 2 13.94 5.13 13.14
295 2 13.51 4.84 15.39
296 2 13.06 3.61 14.64
297 2 10.46 14.6671 14.67
298 2 10.01 1.19 13.91
299 2 11.35 5.16 14.65
300 2 10.04 5.17 13.9
301 2 13.07 2.67 10.15
302 2 12.18 1.44 10.15
303 2 13.49 1.47 15.41
304 2 12.18 1.48 14.65
305 2 9.16 3.65 16.91
306 2 9.61 4.88 16.15
307 2 9.61 4.85 11.64
308 2 8.3 4.84 12.4
309 2 10.04 5.17 9.39
310 2 11.35 5.14 10.15
311 2 10.02 1.16 10.91
312 2 10.02 1.16 9.4
313 2 13.92 1.13 11.65
314 2 13.92 1.14 13.17
315 2 13.91 1.15 17.67
316 2 14.36 14.6371 16.9
317 2 14.36 6.36 16.9
318 2 15.25 5.14 16.9
319 2 8.28 1.51 16.93
320 2 9.59 1.51 16.17
321 2 1.75 8.83 11.66
322 2 1.33 10.07 12.41
323 2 5.7 12.16 10.89
324 2 4.38 12.17 10.13
325 2 6.13 12.46 13.14
326 2 6.56 13.7 12.38
327 2 4.39 12.21 14.65
328 2 5.25 10.96 14.65
329 2 3.49 8.52 14.67
330 2 2.17 8.53 13.91
331 2 2.65 13.74 14.63
332 2 2.23 12.5 15.39
333 2 5.22 10.02 10.17
334 2 5.65 8.79 9.4
335 2 5.65 8.81 13.9
336 2 5.65 8.82 15.42
337 2 0.48 12.22 16.89
338 2 1.79 12.22 17.65
339 2 0.48 12.2 12.39
340 2 1.79 12.21 13.14
341 2 2.23 12.52 9.38
342 2 2.23 12.51 10.89
343 2 2.61 7.29 10.15
344 2 3.48 8.53 10.16
345 2 7.38 8.49 12.42
346 2 6.07 8.48 11.66
347 2 6.52 7.28 16.91
348 2 7.37 8.53 16.91
349 2 6.14 12.5 17.65
350 2 6.13 12.5 16.14
351 2 1.75 8.84 16.16
352 2 1.33 10.09 16.92
353 2 9.57 8.85 13.16
354 2 9.57 8.84 11.65
355 2 13.08 10.94 10.15
356 2 12.21 12.19 10.14
357 2 14.37 13.7 12.41
358 2 13.95 12.46 11.65
359 2 12.21 12.19 14.66
360 2 13.52 12.17 13.9
361 2 11.3 8.55 14.66
362 2 10.43 7.31 14.66
363 2 10.05 12.53 15.4
364 2 10.05 12.52 13.89
365 2 13.47 8.81 9.39
366 2 13.47 8.8 10.91
367 2 13.48 8.8 13.91
368 2 13.05 10.04 14.67
369 2 9.19 11.01 16.9
370 2 8.31 12.24 16.9
371 2 8.31 12.22 12.39
372 2 9.19 10.99 12.4
373 2 10.48 13.72 10.13
374 2 10.05 12.49 10.88
375 2 10.43 7.29 10.15
376 2 11.3 8.53 10.16
377 2 15.2 8.51 12.41
378 2 14.34 7.26 12.4
379 2 15.2 8.51 16.93
380 2 13.89 8.5 16.17
381 2 13.96 12.5 17.65
382 2 13.95 12.5 16.14
383 2 9.57 8.86 16.15
384 2 9.56 8.86 17.67
ITEM: TIMESTEP
200
ITEM: NUMBER OF ATOMS
384
ITEM: BOX BOUNDS pp pp pp
2.4136573719089505e-01 1.5404311792809107e+01
2.3499875751976607e-01 1.4472146532480238e+01
3.2049711169290340e-01 1.7752539918307097e+01
ITEM: ATOMS id type x y z
1 1 1.42095 1.7307 3.29425
2 1 4.98817 4.39588 1.06557
3 1 6.31187 5.26369 3.25857
4 1 4.96872 4.37801 5.46095
5 1 2.58553 0.673933 5.44461
6 1 2.43227 5.29143 5.46599
7 1 5.02429 1.68404 0.996528
8 1 5.09953 1.59872 5.49933
9 1 1.27893 4.40676 7.63068
10 1 1.32 4.39224 3.27393
11 1 2.46817 5.28173 1.1439
12 1 2.53633 0.832329 1.09665
13 1 6.20994 0.937993 3.2203
14 1 6.27429 0.753888 7.64368
15 1 6.28968 5.32221 7.56274
16 1 1.47821 1.68186 7.57841
17 1 8.80679 1.79785 3.28076
18 1 12.6506 4.40236 1.01854
19 1 13.9924 5.30269 3.1784
20 1 12.7682 4.51085 5.39276
21 1 10.0677 0.84693 5.38603
22 1 10.1543 5.20582 5.54873
23 1 12.78 1.75385 1.08727
24 1 12.7128 1.77168 5.36639
25 1 8.79772 4.21545 7.56251
26 1 8.91247 4.42453 3.25786
27 1 10.2093 5.29992 0.975136
28 1 10.1578 0.899117 1.08176
29 1 13.963 0.729882 3.12241
30 1 13.9874 0.863889 7.64276
31 1 13.9613 5.27151 7.59186
32 1 8.82047 1.58236 7.52665
33 1 1.33139 8.73783 3.2235
34 1 5.09454 11.472 1.14179
35 1 6.34207 12.4381 3.29974
36 1 4.93663 11.4696 5.39941
37 1 2.52077 8.0771 5.44017
38 1 2.41875 12.3519 5.39597
39 1 5.04773 8.89206 1.13477
40 1 5.14161 8.94044 5.36421
41 1 1.33902 11.5555 7.53988
42 1 1.27507 11.4267 3.14024
43 1 2.55469 12.4346 0.995911
44 1 2.52399 7.84825 1.07118
45 1 6.32686 7.98031 3.29383
46 1 6.25533 7.92311 7.49045
47 1 6.26203 12.3361 7.57172
48 1 1.28313 8.88334 7.61937
49 1 8.77914 8.79631 3.28367
50 1 12.737 11.3928 1.03822
51 1 13.9022 12.3682 3.19242
52 1 12.7224 11.6114 5.42979
53 1 10.0464 7.95395 5.37798
54 1 10.1152 12.3973 5.38236
55 1 12.7064 8.81935 1.13472
56 1 12.5529 8.81315 5.27479
57 1 8.81207 11.4636 7.52367
58 1 8.86369 11.4791 3.18917
59 1 10.1394 12.4322 1.09425
60 1 10.0755 7.92834 1.14006
61 1 13.94 7.98405 3.24749
62 1 13.8545 7.98698 7.48757
63 1 14.0508 12.528 7.63033
64 1 8.8105 8.83514 7.56394
65 1 1.29062 1.67638 11.9722
66 1 5.08672 4.40694 9.75967
67 1 6.35462 5.33885 11.8715
68 1 5.08752 4.38121 14.0179
69 1 2.63287 0.885557 14.2558
70 1 2.65204 5.32391 14.1654
71 1 5.15144 1.73431 9.8376
72 1 5.1432 1.66758 14.1916
73 1 1.32774 4.3896 16.3685
74 1 1.3457 4.37778 11.9934
75 1 2.61204 5.18111 9.72372
76 1 2.60127 0.893376 9.83855
77 1 6.29247 0.819734 11.9697
78 1 6.41535 0.839738 16.3444
79 1 6.39503 5.29254 16.3077
80 1 1.25842 1.71756 16.369
81 1 8.82591 1.73633 11.9866
82 1 12.7223 4.40701 9.83017
83 1 13.9476 5.21113 11.9577
84 1 12.7025 4.40649 14.0239
85 1 10.1393 0.905563 14.1951
86 1 10.114 5.19312 14.0746
87 1 12.6412 1.78153 9.73496
88 1 12.6412 1.74788 14.1953
89 1 8.86234 4.45382 16.3749
90 1 8.82569 4.39506 11.887
91 1 10.238 5.31216 9.71318
92 1 10.176 0.891749 9.73729
93 1 13.942 0.793901 11.9377
94 1 13.9624 0.883697 16.298
95 1 13.9519 5.27161 16.242
96 1 8.86695 1.8174 16.3694
97 1 1.25049 8.82397 11.888
98 1 5.07713 11.6312 9.73225
99 1 6.37916 12.467 11.9175
100 1 5.15499 11.5059 14.1021
101 1 2.53951 7.96346 14.1575
102 1 2.57046 12.421 14.0056
103 1 4.99795 8.89094 9.67137
104 1 5.07207 8.81461 14.2951
105 1 1.40634 11.4164 16.2043
106 1 1.29363 11.4502 11.9302
107 1 2.56439 12.4755 9.78291
108 1 2.50488 7.94901 9.70866
109 1 6.18859 8.03838 11.9213
110 1 6.2953 7.96565 16.4038
111 1 6.33621 12.3496 16.3054
112 1 1.22168 8.82595 16.3243
113 1 8.79987 8.70911 11.9522
114 1 12.6317 11.5487 9.81299
115 1 13.9233 12.3776 11.9833
116 1 12.7427 11.5084 14.1043
117 1 10.0655 7.88706 14.2633
118 1 10.1971 12.4018 14.2295
119 1 12.6725 8.83093 9.77868
120 1 12.6134 8.85799 14.2262
121 1 8.865 11.5698 16.3279
122 1 8.92184 11.5187 11.9704
123 1 10.1315 12.4394 9.73132
124 1 10.086 7.94603 9.81879
125 1 13.8136 7.90319 12.0308
126 1 13.9168 7.90091 16.3351
127 1 14.0704 12.3913 16.3527
128 1 8.83386 8.82386 16.3499
129 2 0.52765 1.43422 3.46137
130 2 1.33398 2.63746 3.2524
131 2 5.34821 4.90202 1.75393
132 2 5.37587 4.73414 17.6235
133 2 5.92002 4.84544 4.02793
134 2 6.41224 6.21447 3.25177
135 2 3.95396 4.75752 5.44786
136 2 5.50744 4.77915 6.59454
137 2 2.12143 1.2372 4.68176
138 2 3.55081 1.02199 5.23392
139 2 2.03827 5.10204 6.30351
140 2 2.46181 6.23108 5.58129
141 2 5.47661 1.34321 1.82147
142 2 5.08834 2.86415 1.18163
143 2 5.05704 2.49473 5.53772
144 2 5.63933 1.39928 6.31566
145 2 1.8446 4.85473 8.62036
146 2 1.19298 3.31698 7.52653
147 2 1.70154 4.8066 4.10009
148 2 1.96743 4.55995 2.51445
149 2 3.3267 4.93471 1.12278
150 2 2.67454 6.18417 1.1664
151 2 3.61604 1.29541 1.1283
152 2 2.06355 1.22115 1.91619
153 2 5.82502 1.20346 4.10391
154 2 6.27047 14.1851 3.15343
155 2 5.75658 0.840371 8.3622
156 2 6.44623 13.9898 7.62678
157 2 7.3301 4.92608 7.49236
158 2 6.3864 6.49603 7.6445
159 2 1.77952 1.34924 6.65062
160 2 0.499421 1.26775 7.75601
161 2 9.01076 2.84542 3.22304
162 2 7.88612 1.57278 3.14891
163 2 12.6647 3.38925 1.01883
164 2 12.9256 4.66004 17.6117
165 2 13.5353 4.94308 2.40507
166 2 14.9368 4.97249 3.09674
167 2 13.0318 4.80562 4.56992
168 2 11.7994 4.55949 5.37059
169 2 10.9224 1.21636 5.34496
170 2 9.69749 1.374 4.56826
171 2 10.1678 6.21545 5.32097
172 2 9.71411 4.86625 4.84784
173 2 11.7606 1.56735 1.08477
174 2 13.1425 1.07624 1.88459
175 2 12.7251 2.70352 5.24244
176 2 13.1319 1.51358 6.25161
177 2 9.25248 4.36083 6.67145
178 2 8.74068 3.20877 7.3504
179 2 7.96586 4.81828 3.12775
180 2 9.46707 4.9245 2.40856
181 2 9.48368 5.17198 17.4924
182 2 11.2221 4.99376 1.04894
183 2 9.7345 1.31635 0.359414
184 2 9.76637 1.3833 1.84685
185 2 13.3995 0.958048 3.97208
186 2 13.8168 14.0348 3.27934
187 2 13.5645 1.20696 8.48136
188 2 13.8547 14.0046 7.58055
189 2 13.6114 5.00697 6.71454
190 2 14.9548 4.98801 7.75017
191 2 7.77187 1.16487 7.4434
192 2 9.26129 1.3798 6.65592
193 2 1.84774 8.49612 4.23553
194 2 1.21585 9.91392 3.05469
195 2 4.05115 11.8738 1.10123
196 2 4.9169 10.5161 1.08912
197 2 7.28565 12.0729 3.26283
198 2 5.88033 12.1168 2.49601
199 2 5.69144 11.6234 4.88607
200 2 5.23143 11.8265 6.30009
201 2 2.09499 8.56141 6.2032
202 2 3.59431 8.32686 5.54026
203 2 2.46925 13.2685 5.24661
204 2 3.46613 11.9731 5.50155
205 2 4.32566 8.32813 1.29004
206 2 5.47404 8.71362 0.330521
207 2 5.06274 9.85261 5.29835
208 2 5.63718 8.57894 4.57895
209 2 1.88978 11.7261 6.72845
210 2 1.21634 10.5415 7.6194
211 2 15.2771 11.6996 3.37002
212 2 1.82727 11.8345 4.02006
213 2 2.08064 12.0036 1.70371
214 2 2.77859 13.2962 1.14422
215 2 1.88428 8.3273 1.78843
216 2 1.91172 8.12391 17.6799
217 2 7.22593 8.36451 3.24901
218 2 5.79118 8.40561 2.65053
219 2 5.81879 8.3907 6.73402
220 2 7.17705 8.35349 7.52611
221 2 5.75053 12.0639 8.4086
222 2 7.36067 12.0348 7.57925
223 2 0.356343 8.56948 7.50811
224 2 1.77708 8.54761 8.44307
225 2 9.53676 8.56896 4.06928
226 2 9.20105 8.69938 2.40601
227 2 11.7382 11.9273 1.12006
228 2 12.4245 10.3912 1.12377
229 2 13.3134 11.9246 2.50027
230 2 13.5539 12.0129 4.00032
231 2 13.3117 12.1567 5.99919
232 2 11.7513 11.8395 5.22558
233 2 11.0821 8.40642 5.38304
234 2 9.58412 8.23618 6.15361
235 2 9.91292 13.3596 5.26082
236 2 9.68118 11.8885 4.63328
237 2 13.292 8.62935 1.86978
238 2 13.3431 8.48241 17.6723
239 2 13.2288 8.69919 4.50429
240 2 12.4936 9.9363 5.31954
241 2 9.30134 11.8328 8.14587
242 2 9.35815 11.8078 6.68435
243 2 8.72291 10.5192 3.17908
244 2 9.32125 11.8581 2.49356
245 2 10.0482 13.5165 0.934181
246 2 9.81849 12.2205 17.726
247 2 10.939 8.30262 1.15313
248 2 10.1877 7.0013 1.18771
249 2 14.9131 8.09775 3.19633
250 2 14.0601 7.04062 3.04702
251 2 13.7972 7.09969 7.32027
252 2 13.371 8.37122 6.72908
253 2 15.0008 12.2095 7.54323
254 2 13.6938 12.1693 8.50575
255 2 8.92825 9.78577 7.46893
256 2 9.16627 8.66828 8.42667
257 2 1.75634 1.34122 11.246
258 2 0.331435 1.31067 11.9827
259 2 5.61564 4.74306 10.6737
260 2 5.40182 4.92152 8.94881
261 2 6.18172 6.43227 11.8553
262 2 5.84725 4.92141 12.7499
263 2 4.21936 4.62823 14.092
264 2 5.34746 3.27484 14.0618
265 2 2.34413 1.19943 13.4372
266 2 2.08913 1.01755 15.1067
267 2 2.17536 4.97549 15.0346
268 2 2.46891 6.36877 14.1174
269 2 4.2088 1.53989 9.69687
270 2 5.25926 2.7355 9.63734
271 2 4.12027 1.30439 14.2912
272 2 5.68245 1.39115 15.0265
273 2 1.7176 4.77076 17.243
274 2 1.10077 3.52491 16.3263
275 2 1.99384 4.65258 12.7347
276 2 1.55629 3.29942 11.9208
277 2 2.21694 4.83309 10.5918
278 2 3.59334 5.00875 9.79288
279 2 2.01063 0.99012 9.02485
280 2 2.53337 14.2442 9.89084
281 2 5.81322 1.10318 11.1122
282 2 5.96279 1.00976 12.9297
283 2 6.45818 14.039 16.3985
284 2 5.83585 1.11995 17.042
285 2 7.19231 4.81089 16.2375
286 2 5.85072 4.84333 15.3216
287 2 0.323254 1.34444 16.5783
288 2 1.91106 1.7526 17.125
289 2 7.92548 1.30196 12.1117
290 2 8.72838 2.57606 11.6685
291 2 13.3697 4.74147 8.90054
292 2 13.0479 4.90156 10.7519
293 2 14.9156 5.18044 11.9841
294 2 13.7544 4.85 12.8646
295 2 13.1585 4.68773 14.747
296 2 12.8322 3.30685 14.179
297 2 10.1334 14.1539 14.1393
298 2 9.59252 1.24985 13.4786
299 2 11.0176 5.07251 14.1437
300 2 9.85604 4.88892 13.0799
301 2 12.6772 2.82708 9.8562
302 2 11.7314 1.37657 9.87266
303 2 13.1309 1.26984 14.9427
304 2 11.5641 1.36016 14.1868
305 2 8.95386 3.45541 16.5804
306 2 9.09519 4.73194 15.3898
307 2 9.20503 4.77692 10.9156
308 2 7.88584 4.96397 11.9627
309 2 10.169 5.1298 8.79401
310 2 11.1028 4.9632 9.85864
311 2 9.71626 1.15124 10.4489
312 2 9.70203 1.17419 8.95546
313 2 13.3587 1.0647 11.135
314 2 13.3008 1.14864 12.7444
315 2 13.5279 1.10559 17.0972
316 2 14.2241 14.1684 16.4386
317 2 13.8845 6.21576 15.9583
318 2 14.9272 5.12881 16.2228
319 2 7.95622 1.43471 16.3023
320 2 9.44391 1.35922 15.6861
321 2 1.68343 8.54762 11.1091
322 2 1.27754 9.79456 11.8556
323 2 5.3874 11.8978 10.8694
324 2 4.18244 11.9449 9.79906
325 2 5.78859 12.2678 12.8426
326 2 6.43253 13.3973 11.9385
327 2 4.08513 11.9055 14.2135
328 2 4.98794 10.3967 14.1167
329 2 3.42676 8.22837 14.1154
330 2 1.99626 8.43681 13.4969
331 2 2.49778 13.6116 13.9305
332 2 2.08838 12.18 14.9483
333 2 5.23785 9.89085 9.85185
334 2 5.69772 8.69083 8.95072
335 2 5.42677 8.6779 13.3885
336 2 5.81962 8.56496 14.9969
337 2 0.589248 11.7219 16.0866
338 2 1.63179 12.2473 16.8328
339 2 0.441818 11.7389 11.9744
340 2 1.73114 11.8748 12.8393
341 2 1.88008 12.1755 9.12122
342 2 2.23332 12.1412 10.6556
343 2 2.52983 6.88987 9.72001
344 2 3.3476 8.25231 9.69961
345 2 7.17343 8.30099 11.7572
346 2 5.593 8.3498 11.2599
347 2 6.39839 6.80856 16.3404
348 2 7.14491 8.402 16.6483
349 2 5.97989 11.9834 17.1322
350 2 5.82001 11.9551 15.4218
351 2 1.76769 8.62453 15.5293
352 2 1.47311 9.8861 16.2854
353 2 8.96328 8.39167 12.832
354 2 9.33968 8.28377 11.2532
355 2 12.6483 10.4586 9.91085
356 2 11.7143 11.6171 9.65297
357 2 13.8828 13.4076 11.8695
358 2 13.4552 12.2001 11.1344
359 2 11.7103 11.8211 14.2135
360 2 13.2187 11.8642 13.2087
361 2 10.8933 8.40131 14.3109
362 2 10.2014 7.0192 14.2536
363 2 9.80269 12.0261 15.0725
364 2 9.71158 12.2648 13.4412
365 2 13.2 8.53289 8.99177
366 2 13.0703 8.49187 10.4882
367 2 12.9696 8.64834 13.2811
368 2 12.6494 9.87078 14.2598
369 2 8.7635 10.5846 16.151
370 2 7.95091 11.863 16.2978
371 2 7.96983 11.7106 12.1105
372 2 8.92752 10.4578 12.1159
373 2 10.1408 13.4348 9.61418
374 2 9.76404 12.1222 10.6018
375 2 10.2479 7.05927 9.75907
376 2 10.9899 8.27027 9.88492
377 2 14.6553 8.37133 11.9062
378 2 14.0178 6.90458 12.0262
379 2 14.7309 8.01906 16.2728
380 2 13.5475 8.32149 15.5843
381 2 13.535 11.943 17.026
382 2 13.4276 12.0427 15.5929
383 2 9.25392 8.55095 15.4712
384 2 9.40331 8.44732 17.1022
ITEM: TIMESTEP
400
ITEM: NUMBER OF ATOMS
384
ITEM: BOX BOUNDS pp pp pp
4.6654049692420863e-01 1.5179137033075790e+01
4.3348055518130035e-01 1.4273664734818711e+01
6.2313843955395143e-01 1.7449898590446061e+01
ITEM: ATOMS id type x y z
1 1 1.42562 1.66879 3.27671
2 1 5.03927 4.46072 1.07069
3 1 6.22632 5.09617 3.24571
4 1 4.81458 4.12113 5.14442
5 1 2.55126 0.523756 5.29112
6 1 2.4825 5.17363 5.26699
7 1 4.83513 1.73042 1.23721
8 1 4.93332 1.56934 5.27804
9 1 1.21011 4.36553 7.40458
10 1 1.22918 4.32042 3.14172
11 1 2.50891 5.06165 1.01819
12 1 2.46643 0.955755 1.08899
13 1 6.16806 0.881886 3.19848
14 1 6.25575 0.759431 7.35444
15 1 6.13367 5.12203 7.16432
16 1 1.42175 1.68637 7.28861
17 1 8.53462 1.76074 3.18209
18 1 12.1896 4.14589 0.788886
19 1 13.393 4.98971 2.96879
20 1 12.2467 4.09759 5.09807
21 1 9.88812 0.686409 5.17536
22 1 9.82608 5.08794 5.25194
23 1 12.2814 1.54657 0.989813
24 1 12.3742 1.51175 5.26196
25 1 8.56772 4.12023 7.33385
26 1 8.63444 4.35722 3.08184
27 1 9.8442 5.27388 0.866094
28 1 9.76522 0.858257 1.11352
29 1 13.6604 0.938406 3.10566
30 1 13.6294 0.813008 7.45166
31 1 13.4697 5.21419 7.15178
32 1 8.78242 1.48251 7.27077
33 1 1.27625 8.49876 3.13638
34 1 4.98213 11.1114 1.07185
35 1 6.20872 12.0688 3.01174
36 1 4.88618 11.3262 5.14402
37 1 2.47593 7.75569 5.33372
38 1 2.36589 11.8747 5.26949
39 1 4.73535 8.60548 1.04491
40 1 4.84839 8.54823 5.12915
41 1 1.24833 11.1089 7.40277
42 1 1.24304 11.1832 3.09478
43 1 2.5481 12.1925 1.06622
44 1 2.34839 7.62517 0.983506
45 1 6.22958 7.74744 3.06602
46 1 6.097 7.80379 7.32144
47 1 6.05666 12.0404 7.35937
48 1 1.18466 8.45994 7.35113
49 1 8.69005 8.53342 3.15127
50 1 12.3386 11.2017 1.09072
51 1 13.5023 12.1822 3.05576
52 1 12.2797 11.3748 5.27945
53 1 9.90042 7.68729 5.29287
54 1 9.76866 11.9617 5.23695
55 1 12.3916 8.60778 1.04173
56 1 12.2472 8.77311 5.09296
57 1 8.49287 11.1754 7.31793
58 1 8.72697 11.1741 3.12027
59 1 9.9182 12.1329 1.021
60 1 9.8819 7.6902 1.01308
61 1 13.5172 7.68044 3.16626
62 1 13.3376 7.85801 7.29892
63 1 13.4854 12.16 7.5063
64 1 8.48787 8.65471 7.26836
65 1 1.38724 1.6118 11.6041
66 1 4.97613 4.26047 9.38897
67 1 6.24041 5.20455 11.5628
68 1 5.04212 4.43729 13.5769
69 1 2.51669 0.751846 13.6802
70 1 2.46607 5.19847 13.6692
71 1 5.01773 1.6334 9.58548
72 1 4.96404 1.83005 13.8087
73 1 1.13076 4.28585 15.7135
74 1 1.34321 4.23942 11.674
75 1 2.54127 5.15991 9.56154
76 1 2.54005 0.773346 9.44103
77 1 6.20938 0.827293 11.7685
78 1 6.03747 0.741303 15.8837
79 1 6.34024 5.19563 15.7445
80 1 1.21622 1.63332 15.7514
81 1 8.50311 1.75082 11.5812
82 1 12.3051 4.29079 9.43542
83 1 13.5619 5.07475 11.6303
84 1 12.2583 4.16622 13.5733
85 1 9.73143 0.751495 13.5665
86 1 9.71367 4.99216 13.4853
87 1 12.2577 1.74056 9.5566
88 1 12.2476 1.53843 13.8093
89 1 8.68853 4.08167 15.6388
90 1 8.56936 4.27606 11.3815
91 1 9.89503 5.19538 9.24931
92 1 9.93633 0.691381 9.52086
93 1 13.6058 0.878419 11.5965
94 1 13.6159 0.64689 15.9035
95 1 13.4314 5.20016 15.5943
96 1 8.55379 1.55256 15.7014
97 1 1.19442 8.69092 11.6054
98 1 4.87014 11.218 9.53985
99 1 6.14129 11.9605 11.6526
100 1 4.83308 11.2152 13.6967
101 1 2.40797 7.80775 13.5974
102 1 2.41859 11.9343 13.5739
103 1 4.71182 8.62876 9.42844
104 1 4.72167 8.63762 13.7656
105 1 1.366 11.0627 15.7899
106 1 1.19552 11.3251 11.5236
107 1 2.45036 12.1105 9.43484
108 1 2.38137 7.69453 9.43811
109 1 6.08149 7.93642 11.4799
110 1 6.10416 7.72839 15.7413
111 1 6.22668 12.0676 15.8069
112 1 1.25905 8.58614 15.6982
113 1 8.69707 8.60584 11.4538
114 1 12.1647 11.219 9.44509
115 1 13.5006 12.2173 11.4946
116 1 12.193 11.2484 13.5381
117 1 9.7601 7.6554 13.673
118 1 9.79267 12.0303 13.4857
119 1 12.2286 8.63539 9.48168
120 1 12.1931 8.62881 13.5977
121 1 8.61337 11.2695 15.8214
122 1 8.55089 11.1104 11.4814
123 1 9.69392 12.0082 9.48149
124 1 9.83609 7.71332 9.40467
125 1 13.5067 7.62769 11.558
126 1 13.4986 7.74198 15.6677
127 1 13.5341 11.8687 15.7957
128 1 8.5793 8.60548 15.7132
129 2 15.1581 1.55 3.43155
130 2 1.27191 2.7011 3.15577
131 2 5.32316 4.61442 1.98061
132 2 5.62609 4.67249 17.1337
133 2 5.76239 4.86868 4.08509
134 2 6.09177 6.05093 3.20373
135 2 3.85763 4.55891 5.08665
136 2 5.39845 4.60939 5.93588
137 2 2.03711 1.0599 4.46446
138 2 3.57373 0.810327 5.09433
139 2 1.86853 4.92176 5.98541
140 2 2.36424 6.14341 4.92879
141 2 5.43672 1.57558 1.94646
142 2 4.97109 2.79131 1.20094
143 2 4.77139 2.52962 5.28436
144 2 5.39338 1.21943 6.06607
145 2 1.65369 4.54507 8.21147
146 2 1.15006 3.32895 7.38248
147 2 1.66752 4.79314 3.77814
148 2 1.67976 4.77388 2.30398
149 2 3.56355 4.83636 1.05912
150 2 2.31806 6.0581 1.15957
151 2 3.35233 1.41858 1.03348
152 2 2.09776 1.16351 1.92769
153 2 5.509 1.0257 4.19202
154 2 6.12167 13.6897 3.19524
155 2 5.74752 1.32548 8.37517
156 2 6.01247 13.6931 7.46711
157 2 7.09897 4.67104 7.21425
158 2 6.03093 6.09023 7.27732
159 2 1.87688 1.31177 6.49732
160 2 15.1249 1.50878 7.38699
161 2 8.39893 2.70842 3.23679
162 2 7.50359 1.37172 3.1163
163 2 12.1248 3.11521 0.692644
164 2 12.5669 4.59656 16.7275
165 2 13.0163 4.79529 2.11439
166 2 14.1723 4.69288 2.89369
167 2 12.5955 4.50691 4.16792
168 2 11.3482 4.60222 5.07724
169 2 10.7024 0.899637 5.56642
170 2 9.53371 1.11073 4.38111
171 2 9.7343 6.09356 5.33427
172 2 9.26024 4.83567 4.20644
173 2 11.3633 1.28289 1.06745
174 2 12.7228 1.46769 1.86923
175 2 12.2506 2.65088 5.32827
176 2 12.9603 1.22194 6.17866
177 2 9.00062 4.46327 6.4903
178 2 8.77459 3.06636 7.3337
179 2 7.64175 4.48782 3.08714
180 2 9.07839 4.69482 2.21005
181 2 9.54024 4.64423 16.9173
182 2 10.7193 4.78507 1.05371
183 2 9.27275 1.35263 17.0676
184 2 9.37559 1.3146 1.92118
185 2 12.9765 1.2884 3.84412
186 2 13.6192 13.6814 3.12828
187 2 13.0038 1.1857 8.12302
188 2 13.5192 13.497 7.65387
189 2 13.1431 4.57638 6.47638
190 2 14.4583 5.05933 7.43288
191 2 7.83929 1.35362 7.38143
192 2 9.21727 1.03931 6.51234
193 2 1.82171 8.19537 3.95597
194 2 1.32834 9.52441 3.35093
195 2 4.05274 11.5032 0.992551
196 2 4.91299 10.1479 1.20614
197 2 7.11065 11.8585 3.06199
198 2 5.73539 11.7315 2.32767
199 2 5.50719 11.4882 4.48274
200 2 5.251 11.4051 6.07409
201 2 1.85957 8.11897 6.0959
202 2 3.45641 8.17682 5.43618
203 2 2.49232 12.8138 5.42368
204 2 3.34747 11.5955 5.13188
205 2 3.86922 8.1901 0.9602
206 2 5.33014 8.30616 16.9931
207 2 4.8354 9.68413 4.97792
208 2 5.4854 8.32063 4.14081
209 2 1.85935 11.2769 6.7513
210 2 1.02992 10.1723 7.49887
211 2 15.169 11.42 3.09995
212 2 1.99016 11.3731 3.87628
213 2 2.02895 11.99 1.84229
214 2 2.57135 13.2547 1.03953
215 2 1.75085 8.18952 1.74844
216 2 1.95807 7.89704 17.0063
217 2 7.24755 7.85537 3.06266
218 2 5.71234 7.90639 2.18724
219 2 5.62522 8.01335 6.31352
220 2 7.12827 8.11436 7.38244
221 2 5.64898 11.7518 8.10984
222 2 7.19533 11.7484 7.21969
223 2 14.9214 8.10259 7.37643
224 2 1.51426 8.35456 8.31307
225 2 9.01394 8.22514 4.05134
226 2 9.27537 8.19694 2.32118
227 2 11.5179 11.6685 0.99564
228 2 12.167 10.2551 1.04679
229 2 13.0754 11.7358 2.33258
230 2 13.1904 11.9013 3.86768
231 2 12.8585 11.6419 6.0687
232 2 11.2283 11.4311 5.2534
233 2 10.8078 8.0637 5.40917
234 2 9.35242 7.91999 6.05032
235 2 9.78746 13.1605 5.14753
236 2 9.46024 11.7469 4.28046
237 2 12.9867 8.28819 2.01389
238 2 13.0396 8.23811 17.2034
239 2 12.5558 8.56602 4.1422
240 2 12.1811 9.82837 5.16281
241 2 8.86768 11.5013 8.07461
242 2 9.09406 11.4868 6.50366
243 2 8.80334 10.1623 2.99326
244 2 9.43567 11.5089 2.32037
245 2 9.9832 12.9831 0.812857
246 2 9.4517 11.7655 16.9625
247 2 10.6845 8.08654 1.2056
248 2 9.86495 6.47698 0.785644
249 2 14.4874 7.86448 3.14654
250 2 13.564 6.67218 3.24786
251 2 13.2376 6.89218 7.13516
252 2 12.7884 8.13135 6.47327
253 2 14.4484 11.6617 7.16559
254 2 12.8727 11.5369 8.19245
255 2 8.52944 9.84271 7.50226
256 2 8.87273 8.12333 8.05023
257 2 1.94872 1.27313 10.5528
258 2 14.9807 1.28272 11.5901
259 2 5.48985 4.48052 10.2975
260 2 5.47066 4.66479 8.55719
261 2 5.95947 6.3404 11.3786
262 2 5.70421 5.04052 12.4644
263 2 4.18154 4.83824 13.7928
264 2 4.82759 3.4581 13.5664
265 2 2.19781 1.24557 12.8812
266 2 2.05499 1.22136 14.3589
267 2 1.839 5.01399 14.5326
268 2 2.51457 6.1629 13.8833
269 2 4.00228 1.33459 9.6388
270 2 4.94418 2.68494 9.39299
271 2 4.22188 1.53911 13.7565
272 2 5.37704 1.59224 14.6287
273 2 1.77687 4.60209 16.4671
274 2 1.08283 3.24053 15.7218
275 2 1.78374 4.6086 12.5196
276 2 1.45779 3.04011 11.6336
277 2 2.03445 4.92996 10.394
278 2 3.47434 4.83767 9.445
279 2 2.34491 1.16538 8.48831
280 2 2.50335 13.6786 9.35854
281 2 5.53375 1.26003 11.145
282 2 5.63298 1.0927 12.574
283 2 5.88199 13.7037 15.8455
284 2 5.58162 1.18992 16.7279
285 2 7.24104 4.93281 15.8683
286 2 5.81705 4.83732 14.9198
287 2 15.0359 1.00901 15.933
288 2 1.61001 1.466 16.6405
289 2 7.57456 1.35658 11.4632
290 2 8.71672 2.64932 11.6374
291 2 12.8706 4.69136 8.48491
292 2 12.8846 4.56983 10.3142
293 2 14.3969 4.54174 11.6436
294 2 12.962 4.52249 12.3127
295 2 13.0288 4.70988 14.3442
296 2 12.2233 3.22291 13.7624
297 2 9.69662 13.6944 13.4147
298 2 9.2813 1.18695 12.7804
299 2 10.6545 4.57773 13.3384
300 2 9.18153 4.6755 12.4149
301 2 12.171 2.58647 9.51646
302 2 11.3636 1.37354 9.61185
303 2 12.6093 1.14856 14.5133
304 2 11.3036 1.32096 13.8137
305 2 8.61899 2.96092 15.4442
306 2 8.97069 4.41203 14.7546
307 2 9.03491 4.68652 10.6914
308 2 7.67569 4.56264 11.4574
309 2 9.55994 4.89504 8.34841
310 2 10.8403 4.80123 9.27253
311 2 9.41506 1.28577 10.2486
312 2 9.39604 0.818189 8.71193
313 2 13.1706 1.09973 10.7484
314 2 13.1575 1.25771 12.4201
315 2 13.1047 1.24192 16.7178
316 2 13.3363 13.5915 16.1421
317 2 13.2812 6.17668 15.3693
318 2 14.4447 4.96608 15.6833
319 2 7.56327 1.31953 15.609
320 2 9.20706 1.20315 14.8809
321 2 1.74624 8.12227 10.8161
322 2 1.37493 9.78211 11.5277
323 2 5.35084 11.5556 10.4646
324 2 3.99203 11.4004 9.45791
325 2 5.46628 11.6234 12.4611
326 2 6.0537 13.0221 11.6303
327 2 3.83898 11.5162 13.6154