ITEM: TIMESTEP
0
ITEM: NUMBER OF ATOMS
384
ITEM: BOX BOUNDS pp pp pp
-3.1180958401302572e-01 1.5311809584013066e+01
-3.1180958401302572e-01 1.5311809584013066e+01
-3.1180958401302572e-01 1.5311809584013066e+01
ITEM: ATOMS id type x y z
1 1 4.57679 5.50123 13.6944
2 1 14.8875 3.66367 14.1079
3 1 8.20115 10.8513 3.91518
4 1 1.55859 4.11103 4.68534
5 1 14.0046 11.0534 10.4291
6 1 10.1562 -0.0244194 -0.0179537
7 1 13.1461 9.78511 5.92123
8 1 3.48566 13.6848 7.87681
9 1 3.32305 6.30373 3.20589
10 1 5.30735 8.37688 2.36991
11 1 13.7801 6.32188 1.70807
12 1 0.692367 10.1945 14.1186
13 1 15.0627 5.43363 4.6639
14 1 9.98456 5.97612 7.92121
15 1 12.4056 7.19481 3.96576
16 1 9.83562 2.64919 6.79506
17 1 4.60459 4.17249 11.4106
18 1 7.55062 10.3381 11.1669
19 1 8.27543 1.89543 14.4455
20 1 5.83253 14.0038 0.549654
21 1 -0.277952 13.5963 10.2649
22 1 12.6457 2.09652 6.28487
23 1 10.7129 7.40871 14.2399
24 1 2.2119 7.88472 6.40809
25 1 10.4542 9.69036 5.97773
26 1 -0.282536 8.22967 4.81222
27 1 1.6652 11.2607 4.20606
28 1 6.17365 -0.094545 10.725
29 1 12.1932 8.4542 0.381712
30 1 2.29814 6.67565 12.652
31 1 3.74006 5.65533 5.77839
32 1 7.64075 12.3667 7.75101
33 1 2.57949 3.81144 2.08856
34 1 3.31976 13.3432 0.0677147
35 1 -0.0967938 5.37115 7.46928
36 1 11.1426 14.5448 7.59235
37 1 1.26174 14.8074 2.57217
38 1 6.41618 0.335516 13.3898
39 1 0.207637 9.92258 2.18818
40 1 12.6731 13.1901 12.8323
41 1 1.29363 11.9761 7.9846
42 1 13.2286 14.8362 0.439531
43 1 -0.123887 15.1905 5.01064
44 1 8.80795 12.7708 12.0788
45 1 12.4172 6.75949 6.79319
46 1 9.49869 10.6014 8.40823
47 1 10.544 10.9934 13.3575
48 1 8.99001 12.8372 5.44675
49 1 4.04829 1.51716 14.6149
50 1 6.69928 13.1999 13.7041
51 1 4.43379 6.10378 9.26553
52 1 11.4216 -0.0969869 13.0672
53 1 8.10878 14.4288 3.40524
54 1 4.3962 2.37166 3.28729
55 1 12.1316 11.4523 8.45349
56 1 8.7458 10.8517 -0.213292
57 1 1.53862 1.7361 8.48855
58 1 8.69585 5.89847 11.616
59 1 1.22107 9.19196 8.49846
60 1 10.635 10.5731 3.14594
61 1 11.4957 4.51089 15.2148
62 1 10.9209 6.7156 10.446
63 1 4.94638 10.4223 10.3546
64 1 7.94749 8.55464 1.09697
65 1 14.5919 7.80968 8.4877
66 1 5.26248 14.7619 3.62401
67 1 5.62202 2.26942 6.97039
68 1 1.29568 -0.0251437 10.348
69 1 11.6689 12.7598 1.5126
70 1 8.10674 4.34492 9.29769
71 1 15.2574 12.5827 5.71394
72 1 5.13758 11.4238 7.95676
73 1 0.807368 7.59384 14.5622
74 1 1.07308 4.35508 11.6836
75 1 -0.103901 0.899318 12.6958
76 1 12.4336 12.7126 5.99741
77 1 6.5124 0.898083 1.44852
78 1 5.22926 7.74021 7.34722
79 1 4.69818 3.85809 0.25821
80 1 14.6318 1.53081 0.260033
81 1 8.7843 1.26425 2.88569
82 1 10.1715 2.86217 10.2074
83 1 1.97586 4.56417 8.94346
84 1 12.6683 15.2799 4.82665
85 1 10.1623 4.44247 4.67024
86 1 8.26116 6.29332 15.2182
87 1 2.75694 2.33071 12.3211
88 1 10.1168 15.0402 10.6766
89 1 0.0214213 11.8389 0.424274
90 1 9.92368 3.73613 12.9889
91 1 7.93039 3.8304 3.09944
92 1 3.45334 12.7245 2.72154
93 1 13.7442 3.34545 8.32257
94 1 1.06378 7.50528 1.70711
95 1 13.5608 9.51663 12.896
96 1 6.16563 2.34739 9.6158
97 1 6.00658 4.12469 4.96415
98 1 13.0409 2.11594 12.6389
99 1 9.44842 7.22402 5.61094
100 1 3.08802 8.31472 10.412
101 1 4.27645 12.564 12.0172
102 1 0.247817 12.7339 12.6695
103 1 6.92237 8.32243 4.80264
104 1 10.2096 9.4039 11.0142
105 1 8.10819 14.6608 9.11245
106 1 0.724807 14.5893 14.8093
107 1 7.38606 3.87893 0.612739
108 1 13.59 6.17467 11.3541
109 1 6.57455 9.82429 14.0409
110 1 6.72525 7.05567 13.1783
111 1 3.66994 10.3273 5.96103
112 1 1.66543 1.60839 5.77048
113 1 9.05834 13.0173 1.11863
114 1 4.11235 0.213829 6.02437
115 1 10.3679 8.11545 2.36753
116 1 3.8208 14.5044 10.4834
117 1 6.27696 11.8524 2.07137
118 1 3.1417 11.1769 14.1451
119 1 12.971 3.21476 1.56998
120 1 12.4061 13.5738 10.1924
121 1 14.0948 6.56232 13.8874
122 1 11.4172 0.689063 2.37021
123 1 1.65778 1.52802 1.12949
124 1 7.74882 0.714644 6.86752
125 1 13.0368 10.8806 0.0461404
126 1 14.1536 3.59273 10.8941
127 1 12.9937 3.74289 4.44237
128 1 4.93288 10.2326 0.481908
129 2 4.52916 4.87676 12.9369
130 2 4.69703 5.06241 14.547
131 2 14.6886 4.58995 14.3163
132 2 0.0945933 3.63697 13.6264
133 2 7.74221 10.0755 4.24889
134 2 8.99342 10.7228 3.34745
135 2 0.788771 4.72927 4.53377
136 2 1.81069 3.95163 3.77685
137 2 14.4008 11.9252 10.4575
138 2 13.9069 10.7269 11.3647
139 2 10.6725 0.201823 0.765773
140 2 9.47367 0.652849 -0.0632908
141 2 13.5922 9.97565 6.76473
142 2 13.2152 10.5455 5.32572
143 2 3.67781 14.0964 8.7488
144 2 3.53939 14.3835 7.27865
145 2 3.09567 5.45978 2.78243
146 2 3.60518 6.19337 4.09913
147 2 5.08995 9.05489 1.76222
148 2 4.54185 7.79795 2.5309
149 2 13.4381 6.67871 2.59019
150 2 14.7355 6.25337 1.79471
151 2 0.77524 9.18308 14.2443
152 2 0.388115 10.6288 14.9234
153 2 14.1894 4.91997 4.56536
154 2 14.9228 6.4107 4.60147
155 2 10.8762 5.93786 7.61697
156 2 9.58879 6.53361 7.20672
157 2 12.1014 7.06547 4.8105
158 2 11.5829 7.27566 3.48345
159 2 9.70669 3.06202 7.62541
160 2 9.96186 3.35305 6.0781
161 2 3.89127 3.51534 11.556
162 2 5.31618 3.63484 11.0911
163 2 8.36256 9.80951 10.99
164 2 7.91946 11.2623 11.3115
165 2 7.80256 2.56448 14.9346
166 2 7.58248 1.21916 14.1315
167 2 6.10462 13.5421 -0.242407
168 2 4.85977 13.825 0.528199
169 2 14.4101 13.8153 10.1623
170 2 -0.0704958 13.4422 11.1966
171 2 11.7088 2.1063 6.54679
172 2 12.6961 1.18401 5.89058
173 2 10.9921 7.5299 13.3514
174 2 11.2636 8.01166 14.7268
175 2 1.57728 7.89927 5.7134
176 2 1.87051 8.36741 7.16573
177 2 11.4302 9.71213 6.20698
178 2 10.3486 10.1292 5.1128
179 2 14.4149 8.445 5.04536
180 2 0.00164071 8.8165 4.03796
181 2 1.02838 11.8189 4.67407
182 2 2.36173 10.8675 4.79517
183 2 6.32838 0.734699 10.265
184 2 5.21972 -0.301306 10.6492
185 2 12.568 9.37229 0.310345
186 2 12.8634 7.95827 0.824663
187 2 2.56428 7.41349 12.0109
188 2 3.14156 6.4193 13.0935
189 2 3.16723 6.41343 5.9805
190 2 3.10221 4.98312 5.63197
191 2 7.73547 13.1577 8.33842
192 2 8.06104 12.6116 6.87934
193 2 1.75422 3.38105 1.7562
194 2 3.25148 3.1727 2.47226
195 2 3.15037 12.6412 14.9757
196 2 3.16776 12.9566 0.983888
197 2 0.0720948 5.37286 6.52711
198 2 -0.245356 6.34024 7.61737
199 2 11.6512 14.8569 8.35832
200 2 11.802 13.9131 7.23812
201 2 2.07792 14.3411 2.56175
202 2 1.50629 0.044002 2.08403
203 2 6.3968 14.9261 13.4491
204 2 6.20534 0.425411 12.4267
205 2 0.660795 9.1318 1.85703
206 2 0.694078 10.391 2.87312
207 2 12.3708 14.0972 13.0916
208 2 12.1841 12.5232 13.366
209 2 2.09163 12.5603 7.87369
210 2 0.901668 12.2269 8.80367
211 2 13.6981 0.109016 0.335681
212 2 13.4443 14.3386 15.279
213 2 14.5376 15.2076 4.93591
214 2 0.228484 14.9795 4.13145
215 2 9.24837 13.4527 11.622
216 2 9.52013 12.2417 12.5392
217 2 12.875 7.30125 7.44426
218 2 13.1287 6.09272 6.70831
219 2 8.70364 11.2231 8.31889
220 2 9.67729 10.2938 7.51515
221 2 10.4955 10.2933 12.7118
222 2 10.0325 10.7711 14.1408
223 2 9.87115 13.0955 5.5737
224 2 8.95145 12.0108 4.93614
225 2 4.74251 0.928236 14.2575
226 2 3.48888 1.81195 13.8977
227 2 7.56401 13.1017 13.1985
228 2 6.02622 12.6782 13.2435
229 2 3.65548 5.64787 8.88705
230 2 4.53028 5.65688 10.1121
231 2 10.7483 -0.0654962 13.7661
232 2 11.7812 0.808853 13.0779
233 2 8.36482 -0.291862 3.46612
234 2 8.34757 14.0066 4.25098
235 2 5.1094 1.81781 2.95108
236 2 4.6411 2.96006 4.03817
237 2 12.5339 11.0417 9.22128
238 2 11.1841 11.2095 8.49369
239 2 8.60742 10.312 0.576946
240 2 8.69537 11.7883 0.0583599
241 2 1.42282 1.68337 7.50469
242 2 1.60998 2.65673 8.73322
243 2 8.87953 5.11923 12.1645
244 2 8.03029 6.40716 12.1505
245 2 1.95332 8.95172 9.16853
246 2 1.28006 10.1574 8.3047
247 2 11.2632 11.2403 2.79611
248 2 10.7957 9.70539 2.72449
249 2 11.5653 5.40273 -0.288322
250 2 11.1896 4.32648 14.2564
251 2 10.4204 6.65681 9.62663
252 2 10.2607 6.46258 11.0571
253 2 5.87632 10.1769 10.5904
254 2 4.94364 10.8143 9.46912
255 2 7.91802 7.6928 0.604333
256 2 7.17835 8.74025 1.63464
257 2 14.2008 7.92642 9.35992
258 2 -0.267797 8.44072 8.55252
259 2 6.16366 14.3915 3.8125
260 2 4.75946 14.0077 3.26281
261 2 6.35085 1.60272 6.90857
262 2 4.84301 1.75402 6.76165
263 2 1.34137 0.662419 9.62968
264 2 0.817817 14.7755 10.0578
265 2 10.8342 13.0339 1.10914
266 2 12.2496 13.5788 1.43103
267 2 7.99168 4.93257 10.0429
268 2 8.59208 4.87508 8.55834
269 2 -0.0863874 13.5026 5.64494
270 2 0.00602987 12.1735 6.56287
271 2 6.0476 11.6847 7.84187
272 2 4.65027 12.2574 7.8746
273 2 -0.10786 7.21382 14.4417
274 2 1.40859 7.20909 13.8607
275 2 1.10879 5.19843 12.1297
276 2 0.142322 4.18446 11.4107
277 2 0.192301 0.569522 11.8253
278 2 0.262058 0.216297 13.3227
279 2 13.325 12.966 5.76917
280 2 12.474 12.1815 6.79075
281 2 6.96454 1.33987 0.72514
282 2 6.22808 -0.0168944 1.14781
283 2 5.28424 6.95392 7.95734
284 2 5.69738 8.44349 7.79401
285 2 4.59695 2.96295 -0.156096
286 2 4.05776 3.8329 1.0606
287 2 14.2623 2.20361 0.861912
288 2 14.7961 2.02476 15.1013
289 2 7.90736 0.984376 2.41964
290 2 8.42535 2.08554 3.23522
291 2 9.33834 3.30929 9.83257
292 2 10.1754 1.88055 10.1119
293 2 1.75381 4.52695 9.90946
294 2 1.11552 4.78978 8.54253
295 2 12.2645 0.0873025 4.07993
296 2 12.0334 14.6435 5.15054
297 2 9.97133 5.30379 5.02216
298 2 9.51596 4.30903 3.95105
299 2 9.11176 6.41377 14.7882
300 2 7.57568 6.54 14.599
301 2 2.07189 2.92609 11.9449
302 2 2.69894 1.52435 11.845
303 2 10.8501 14.3815 10.4642
304 2 10.5118 -0.206863 11.478
305 2 0.274248 12.7719 0.61942
306 2 0.108425 11.2293 1.22179
307 2 9.70727 2.84376 13.3266
308 2 10.3129 3.49932 12.1129
309 2 7.16744 3.93944 3.6373
310 2 7.68964 3.77425 2.12389
311 2 2.7812 12.2345 3.34142
312 2 4.17512 12.108 2.65722
313 2 13.4252 2.63657 7.76521
314 2 14.4885 3.85196 7.85505
315 2 1.16553 7.50623 0.684607
316 2 1.80702 6.9489 2.01705
317 2 14.4305 9.58843 13.243
318 2 13.0187 10.0336 13.4694
319 2 5.70123 2.57075 8.68482
320 2 6.80813 3.05178 9.52933
321 2 5.35787 4.80808 5.12533
322 2 5.96938 3.53575 5.71789
323 2 13.0854 2.74416 13.3668
324 2 13.871 1.59988 12.7008
325 2 8.54415 7.16809 5.28465
326 2 9.76316 8.11779 5.62097
327 2 3.5805 7.58031 10.0651
328 2 3.76188 9.05652 10.3377
329 2 4.55808 11.8882 11.3243
330 2 3.56374 12.075 12.5347
331 2 0.334551 11.7965 12.6005
332 2 0.24849 12.8839 13.5924
333 2 6.35726 8.22802 5.65351
334 2 6.38531 8.12785 4.02112
335 2 10.214 9.5859 10.0692
336 2 10.6644 8.57403 11.1276
337 2 8.95214 14.8857 9.64428
338 2 7.3584 14.7538 9.70982
339 2 0.591563 15.0693 0.0182509
340 2 1.70203 14.3696 14.7724
341 2 6.4741 3.89198 0.306924
342 2 7.8908 4.74294 0.474307
343 2 13.7745 5.25403 11.174
344 2 12.6407 6.3597 11.1641
345 2 6.61181 10.3071 13.1711
346 2 7.38294 10.2018 14.4287
347 2 5.92965 6.53312 13.3142
348 2 6.65131 8.00804 13.4902
349 2 4.1508 10.9057 6.58172
350 2 3.72612 9.43762 6.27968
351 2 0.960879 1.05271 5.33877
352 2 1.48012 2.49213 5.40543
353 2 8.71011 13.4532 1.93204
354 2 8.99593 13.78 0.520382
355 2 3.28533 0.709593 5.89467
356 2 4.52263 -0.105961 5.1872
357 2 10.8957 8.12501 1.5533
358 2 9.392 8.09909 2.00114
359 2 2.85608 14.8006 10.6062
360 2 3.90293 13.7417 11.0449
361 2 6.48734 12.6937 1.54518
362 2 7.04029 11.6822 2.67807
363 2 2.24681 10.7375 14.3261
364 2 3.668 10.6767 14.8241
365 2 12.3482 3.69431 0.972113
366 2 13.2921 3.83378 2.19605
367 2 12.5073 12.8061 9.60602
368 2 12.5354 13.311 11.1419
369 2 13.9506 6.55755 12.8999
370 2 13.4462 7.1125 14.3857
371 2 11.8334 1.45816 2.05064
372 2 10.4376 0.894116 2.52875
373 2 0.844146 1.54638 0.605455
374 2 2.39804 1.38307 0.478242
375 2 7.77884 0.12269 7.66547
376 2 8.60235 1.23456 6.91956
377 2 12.4122 11.5105 0.551261
378 2 13.9301 11.2794 0.187093
379 2 13.8259 3.47873 9.96028
380 2 13.5184 3.1733 11.5056
381 2 12.9666 3.11167 5.2382
382 2 12.0906 4.05916 4.29522
383 2 5.48443 10.7696 1.07083
384 2 5.47524 10.05 -0.286949
ITEM: TIMESTEP
200
ITEM: NUMBER OF ATOMS
384
ITEM: BOX BOUNDS pp pp pp
-2.1868351273538700e-01 1.5218683512735430e+01
-2.1868351273538700e-01 1.5218683512735430e+01
-2.1868351273538700e-01 1.5218683512735430e+01
ITEM: ATOMS id type x y z
1 1 4.49185 5.63704 13.1564
2 1 14.4889 3.89342 13.9413
3 1 7.59713 10.6122 3.80835
4 1 1.73492 3.73883 4.61705
5 1 13.6198 10.1694 10.2575
6 1 9.98099 0.239655 -0.0436085
7 1 13.2901 9.63419 6.03286
8 1 3.33341 13.5738 7.64433
9 1 3.13588 6.41547 2.85908
10 1 5.60434 7.84709 2.52958
11 1 13.7686 6.59937 1.83977
12 1 0.582266 10.051 13.8048
13 1 14.9635 5.45891 4.87136
14 1 9.88554 5.92483 7.89599
15 1 12.2402 7.03735 3.99993
16 1 9.92049 2.71741 6.74307
17 1 4.71858 3.86772 11.1898
18 1 7.31724 10.3569 11.3085
19 1 8.3368 1.99803 14.4353
20 1 5.78418 13.9343 0.601097
21 1 -0.119298 13.3113 10.0222
22 1 12.5434 1.8721 6.27343
23 1 10.6268 7.11892 14.195
24 1 1.94114 7.85884 6.33229
25 1 10.3986 9.23288 5.78691
26 1 15.0691 8.23087 4.72512
27 1 1.76173 11.4257 4.43625
28 1 5.94737 0.381468 10.5455
29 1 12.2111 7.98999 0.368254
30 1 2.23642 6.59825 12.2928
31 1 3.55985 5.69237 5.38641
32 1 7.68193 11.9309 7.8537
33 1 3.14175 3.55341 2.22907
34 1 3.00941 13.3229 0.180123
35 1 -0.0444417 5.29762 7.60781
36 1 10.6698 14.5413 7.35595
37 1 1.2583 14.5313 2.31587
38 1 6.09662 0.444358 13.2917
39 1 0.380586 9.90205 2.76913
40 1 12.2622 13.0983 12.4939
41 1 0.944245 12.2595 8.04208
42 1 13.5205 14.2407 0.222413
43 1 -0.0416208 14.9511 4.49829
44 1 8.49259 12.7382 11.8164
45 1 12.5184 6.29325 6.78612
46 1 9.69177 10.297 8.21978
47 1 10.4334 11.026 12.8326
48 1 8.8504 12.3518 5.41827
49 1 3.96371 1.64142 14.265
50 1 6.51285 13.2447 13.4156
51 1 4.14114 5.94056 9.29952
52 1 11.2427 0.0164678 13.1344
53 1 7.55274 14.2362 3.51666
54 1 4.74585 2.09932 3.57342
55 1 12.2519 11.2074 8.36831
56 1 8.83554 10.5355 -0.183693
57 1 1.65797 1.7545 8.40006
58 1 8.51441 5.59018 11.5454
59 1 1.16579 9.14873 8.52288
60 1 10.4661 10.5626 3.34014
61 1 11.5704 4.31742 14.873
62 1 10.4757 6.91713 10.5147
63 1 4.86385 10.2185 10.0495
64 1 7.94828 8.05626 1.31307
65 1 14.3215 7.53881 8.66171
66 1 4.89726 14.8383 3.7718
67 1 5.77094 1.95017 6.83152
68 1 1.3315 0.421647 10.3837
69 1 11.4501 12.4222 1.73462
70 1 8.24499 4.26068 9.35998
71 1 15.1527 12.5352 5.70049
72 1 4.90145 11.3602 7.53535
73 1 0.94364 7.48398 14.3955
74 1 1.11642 4.25105 11.7634
75 1 -0.0569277 0.579441 12.7781
76 1 12.4151 12.5248 6.01507
77 1 6.16032 1.04084 1.4328
78 1 5.54941 8.05526 6.97911
79 1 4.60829 3.97058 -0.196509
80 1 14.4863 1.79976 0.307002
81 1 8.56059 1.31678 2.62233
82 1 10.1562 2.54891 10.2254
83 1 1.85289 4.40937 8.89161
84 1 12.6284 15.0884 4.25013
85 1 10.1745 4.80794 4.88501
86 1 8.32115 6.30254 14.9284
87 1 2.77373 2.2247 12.1138
88 1 9.93087 14.7328 10.7272
89 1 -0.184832 11.2635 0.724954
90 1 9.69647 3.54621 12.7909
91 1 7.92481 3.87513 3.54577
92 1 3.29362 12.6936 2.69337
93 1 13.4174 3.50567 8.17766
94 1 0.786755 7.50851 1.68863
95 1 13.3999 9.97221 12.7311
96 1 6.16749 2.73627 9.34446
97 1 5.79533 3.88947 5.16423
98 1 13.1192 1.81692 12.672
99 1 8.92604 6.99875 5.41739
100 1 3.13295 8.18767 10.304
101 1 4.38434 12.2073 12.0241
102 1 0.604124 12.7101 12.3515
103 1 6.80368 8.50037 4.75538
104 1 9.74959 9.52568 10.7671
105 1 7.92873 14.4832 8.94841
106 1 0.805591 14.356 14.5206
107 1 7.35649 3.97414 0.298041
108 1 13.3637 6.61696 10.8884
109 1 6.64139 9.51612 13.643
110 1 6.74111 6.91938 13.053
111 1 3.54369 9.79709 5.64371
112 1 1.5399 1.24291 5.68211
113 1 9.15123 13.2651 1.04213
114 1 3.93279 0.211543 6.11302
115 1 10.4124 8.11017 2.28111
116 1 3.7509 14.2061 10.3167
117 1 5.62231 11.5989 2.23434
118 1 3.23274 11.0711 14.1957
119 1 12.2964 2.89242 1.57938
120 1 12.4734 13.6633 10.1014
121 1 13.9348 6.51264 13.6364
122 1 11.1383 0.8375 2.4801
123 1 1.83104 1.38942 1.04636
124 1 8.06398 0.69875 6.68113
125 1 12.6952 10.6513 -0.150534
126 1 13.993 3.79549 10.7275
127 1 12.5619 4.17347 4.02792
128 1 4.96225 9.72819 0.40821
129 2 4.62448 5.06542 12.4278
130 2 4.32287 5.30344 14.1145
131 2 14.0883 4.9202 13.9301
132 2 -0.151771 4.01135 13.3773
133 2 7.3347 9.7473 4.27579
134 2 8.66115 10.5517 3.68873
135 2 0.97782 4.26816 4.60621
136 2 2.24897 3.75126 3.73341
137 2 14.3338 10.8206 10.3138
138 2 13.3897 10.2344 11.252
139 2 10.4001 0.420287 0.892876
140 2 9.131 0.808765 15.0501
141 2 13.3846 9.75662 7.06126
142 2 13.5538 10.6388 5.8395
143 2 3.56308 13.9142 8.56355
144 2 3.51619 14.2747 6.84862
145 2 2.88931 5.71583 2.21473
146 2 3.24448 6.36825 3.82584
147 2 5.38716 8.75042 1.82599
148 2 4.8439 7.3066 2.71729
149 2 13.2715 6.56848 2.59857
150 2 14.7537 6.91202 2.02173
151 2 0.743162 9.07413 13.7507
152 2 0.403132 10.3451 14.8701
153 2 14.0767 5.17154 4.71614
154 2 14.8914 6.27021 4.491
155 2 10.8039 5.979 7.42105
156 2 9.31632 6.62247 7.40379
157 2 12.3759 7.10141 4.98376
158 2 11.522 7.679 3.80151
159 2 9.61903 3.07551 7.66805
160 2 10.0098 3.55758 6.24651
161 2 4.29228 3.06292 11.2958
162 2 5.487 3.6299 10.5606
163 2 8.22465 9.93235 11.1712
164 2 7.61671 11.3325 11.1808
165 2 7.93895 2.68254 -0.171386
166 2 7.60451 1.64209 13.9486
167 2 6.10901 13.5597 15.1074
168 2 4.89431 14.0123 0.459801
169 2 14.3591 13.5519 10.0391
170 2 0.0999093 13.0115 10.9477
171 2 11.6509 1.94771 6.59901
172 2 12.5197 1.02519 5.82036
173 2 10.9318 7.27722 13.3153
174 2 11.261 7.59009 14.8857
175 2 1.10873 7.7874 5.74083
176 2 1.70249 8.39461 7.10656
177 2 11.3746 9.0979 5.82372
178 2 10.5441 10.0009 5.01119
179 2 14.4576 8.74935 5.34221
180 2 0.205554 8.73774 3.99586
181 2 1.07991 11.96 5.01904
182 2 2.46539 10.8478 4.92729
183 2 6.05284 1.18719 9.89156
184 2 5.08691 0.105945 10.4646
185 2 12.6328 9.04631 0.168354
186 2 13.2278 7.30887 0.850512
187 2 2.46287 7.18039 11.5399
188 2 3.20716 6.24495 12.6398
189 2 3.13622 6.41178 5.70953
190 2 2.89033 4.95706 5.29084
191 2 7.64288 12.6964 8.39152
192 2 8.01365 12.1225 6.86009
193 2 2.70535 2.88571 1.62682
194 2 3.71949 2.79937 2.78952
195 2 2.90043 12.5695 15.0858
196 2 2.95078 12.9906 1.14143
197 2 -0.105574 5.47232 6.55126
198 2 15.0167 6.05578 7.83816
199 2 11.3622 -0.0335103 7.38894
200 2 11.2918 13.7422 6.96056
201 2 2.1253 13.9298 2.52839
202 2 1.66442 15.1875 1.71957
203 2 6.29051 14.7191 13.3994
204 2 6.19115 0.341224 12.4745
205 2 0.847364 9.25906 2.27313
206 2 0.921271 10.4589 3.43442
207 2 11.6886 13.8952 12.7112
208 2 11.5243 12.2328 12.4945
209 2 1.68568 12.7715 7.77669
210 2 0.433284 12.9701 8.80834
211 2 13.2199 15.1761 0.29693
212 2 13.5384 14.1382 14.6803
213 2 14.4011 -0.184928 4.18015
214 2 0.449451 14.9266 3.6928
215 2 8.94018 13.3098 11.2504
216 2 9.26833 12.2759 12.0892
217 2 12.9489 6.62741 7.56278
218 2 12.7733 5.399 6.57861
219 2 8.83374 10.9968 8.2257
220 2 9.90439 9.89272 7.29206
221 2 10.1082 10.2966 12.1558
222 2 9.89719 10.7239 13.5224
223 2 9.74211 12.035 5.255
224 2 8.55029 11.5826 4.74013
225 2 4.67778 1.08652 13.8828
226 2 3.53392 1.87656 13.4547
227 2 7.38462 13.0865 12.8885
228 2 5.64785 13.1263 12.8332
229 2 3.46441 5.31213 9.10881
230 2 4.78099 5.74945 9.90545
231 2 10.9419 0.277285 13.9533
232 2 11.9105 0.710941 12.9165
233 2 7.99251 14.998 3.43018
234 2 8.14483 13.6992 4.09599
235 2 5.23956 1.636 2.93011
236 2 5.39894 2.7714 4.03962
237 2 12.6662 10.9323 9.32617
238 2 11.2299 10.8476 8.3415
239 2 8.38945 9.73837 0.458403
240 2 8.82858 11.2899 0.409191
241 2 1.41286 1.51252 7.32419
242 2 1.7572 2.80115 8.43941
243 2 8.90798 4.86822 12.1512
244 2 7.83453 6.18824 12.0716
245 2 1.72562 8.73174 9.37873
246 2 1.25447 10.0073 8.38279
247 2 10.9091 11.2502 2.91447
248 2 10.5922 9.6473 2.72569
249 2 11.1775 5.24489 15.0056
250 2 10.9855 3.95003 14.0487
251 2 10.4083 6.33096 9.62332
252 2 9.68128 6.39375 10.8957
253 2 5.92828 10.0594 10.144
254 2 4.82263 10.695 9.23532
255 2 8.12489 7.36518 0.583975
256 2 7.19567 7.95175 1.98421
257 2 13.935 7.16097 9.65309
258 2 15.0442 8.21937 8.83183
259 2 5.88033 14.3409 3.74957
260 2 4.34405 13.9011 3.42531
261 2 6.62797 1.29823 6.65671
262 2 4.92136 1.43908 6.67069
263 2 1.35244 1.06803 9.56663
264 2 0.704119 15.1811 10.2807
265 2 10.6159 12.923 1.35994
266 2 12.1217 13.0061 1.69017
267 2 8.20829 4.69934 10.3437
268 2 8.76025 5.00958 8.68952
269 2 -0.0788334 13.4351 5.23029
270 2 0.331832 12.5711 6.55978
271 2 5.91603 11.4538 7.47117
272 2 4.46456 12.1491 7.61937
273 2 -0.0989922 7.2866 14.0657
274 2 1.47102 7.28104 13.7389
275 2 1.65906 5.07259 11.8669
276 2 0.32048 4.20725 11.2957
277 2 0.426114 0.550659 11.8912
278 2 0.494114 0.525675 13.4932
279 2 13.5663 12.7088 5.94216
280 2 12.3436 11.8026 6.88932
281 2 6.33964 1.63256 0.716192
282 2 6.13049 -0.00446801 1.1617
283 2 5.11107 7.27906 7.07241
284 2 4.83464 8.65654 7.25974
285 2 4.28577 3.12292 14.5959
286 2 4.13508 4.02388 0.609306
287 2 13.9691 2.13756 0.951099
288 2 14.6642 2.51046 15.1511
289 2 7.86173 1.30638 1.95535
290 2 8.42582 2.26133 3.09449
291 2 9.67686 3.16831 9.54785
292 2 10.4898 1.57289 10.1837
293 2 1.4472 4.57392 9.73918
294 2 1.1438 4.83514 8.18495
295 2 12.2586 -0.117788 3.49233
296 2 12.1725 14.3601 4.67302
297 2 9.84775 5.71551 4.85181
298 2 9.59841 4.32777 4.3372
299 2 9.02841 6.71233 14.6028
300 2 7.63095 6.26266 14.2257
301 2 1.9273 2.9727 12.0315
302 2 2.36974 1.55633 11.358
303 2 10.7718 14.6942 10.3964
304 2 10.2951 15.1215 11.6513
305 2 -0.119357 12.2112 0.803706
306 2 -0.170526 10.7854 1.63994
307 2 9.13584 2.63418 13.2393
308 2 10.2849 3.15172 11.946
309 2 7.11892 3.96816 4.12366
310 2 7.77533 4.31422 2.64676
311 2 2.6461 12.299 3.47357
312 2 4.11461 12.1018 2.77342
313 2 13.2682 2.73238 7.51513
314 2 14.3 3.98884 8.05091
315 2 0.693129 7.52738 0.627231
316 2 1.56561 7.1337 2.21683
317 2 14.3452 9.97831 12.8872
318 2 13.0071 10.3876 13.4054
319 2 5.94052 2.58608 8.29466
320 2 7.02729 3.42256 9.20223
321 2 5.09277 4.68843 5.35391
322 2 5.7627 3.16253 6.07284
323 2 13.1514 2.42657 13.4738
324 2 14.0104 1.3308 12.8487
325 2 8.02183 7.30136 4.99527
326 2 9.45947 7.92703 5.58697
327 2 3.31842 7.32669 10.1065
328 2 3.73742 8.94562 10.1104
329 2 4.60708 11.7116 11.2052
330 2 4.01744 11.7717 12.717
331 2 0.272804 11.8915 12.9578
332 2 0.468619 13.4237 13.0439
333 2 6.2169 8.30867 5.40658
334 2 6.31443 8.22399 3.82996
335 2 9.79426 9.8658 9.7482
336 2 10.1213 8.60221 10.8637
337 2 8.57091 14.7818 9.50635
338 2 7.27863 14.7973 9.56725
339 2 0.188519 14.7718 15.1812
340 2 1.73628 14.0322 14.9626
341 2 6.41104 4.25047 0.241037
342 2 7.81993 5.05724 0.301054
343 2 13.4449 5.69934 10.7178
344 2 12.3262 6.58248 10.6979
345 2 6.85484 9.97317 12.8449
346 2 7.24363 9.87196 14.2899
347 2 5.70639 6.3869 13.059
348 2 6.63399 8.03059 13.2179
349 2 3.84998 10.2334 6.44763
350 2 3.00111 8.99766 5.99223
351 2 0.861764 0.615903 5.15452
352 2 1.44373 2.12295 5.24696
353 2 8.63622 13.5105 1.86499
354 2 9.40921 13.9978 0.49501
355 2 3.01204 0.54756 6.0225
356 2 4.31435 0.0101125 5.2555
357 2 11.0076 8.10948 1.5444
358 2 9.61551 8.00909 1.80084
359 2 2.96957 14.7341 10.498
360 2 3.95671 13.6049 11.1665
361 2 5.76256 12.4656 1.67813
362 2 6.31688 11.1991 2.72696
363 2 2.37189 10.5868 13.9776
364 2 3.62689 10.5276 14.9213
365 2 12.0149 3.30148 0.762287
366 2 12.655 3.48586 2.30477
367 2 12.5156 12.8591 9.57218
368 2 12.4541 13.4634 10.948
369 2 13.7179 6.68561 12.8224
370 2 13.1442 6.58579 14.1744
371 2 11.509 1.51444 2.05272
372 2 10.2762 1.13656 2.64947
373 2 0.845552 1.58274 0.743406
374 2 2.18913 1.31473 0.195979
375 2 8.08782 0.0922538 7.36375
376 2 8.8122 1.31381 6.77483
377 2 12.2261 11.2575 0.477837
378 2 13.5947 10.785 0.0690367
379 2 13.9805 3.52751 9.83458
380 2 13.6955 3.08333 11.2327
381 2 12.6763 3.35663 4.54387
382 2 11.5397 4.49557 4.28065
383 2 5.52324 10.4439 0.734749
384 2 5.30748 9.49731 15.1172
ITEM: TIMESTEP
400
ITEM: NUMBER OF ATOMS
384
ITEM: BOX BOUNDS pp pp pp
-1.3021218416963443e-01 1.5130212184169675e+01
-1.3021218416963443e-01 1.5130212184169675e+01
-1.3021218416963443e-01 1.5130212184169675e+01
ITEM: ATOMS id type x y z
1 1 4.56552 5.42772 12.6489
2 1 14.5863 3.85983 14.0917
3 1 7.30007 10.7699 3.45527
4 1 1.74205 3.52068 4.46557
5 1 13.5971 9.59675 9.92346
6 1 9.4061 0.0295016 15.0334
7 1 13.3435 9.84896 6.41003
8 1 3.39044 12.9792 7.9543
9 1 3.42872 6.01534 2.47445
10 1 5.52806 7.56945 2.12602
11 1 13.8129 6.67482 2.02995
12 1 0.550896 10.0701 13.945
13 1 -0.105925 5.23813 4.87754
14 1 9.63458 6.41779 8.02436
15 1 12.222 6.7775 4.46634
16 1 10.2416 2.58488 6.76219
17 1 4.60161 3.77271 10.6431
18 1 6.83335 10.4726 11.1565
19 1 7.94177 2.02796 14.4636
20 1 5.77919 13.4706 0.514729
21 1 15.0767 13.4078 10.083
22 1 12.3156 1.94703 5.69567
23 1 10.784 6.42803 13.4129
24 1 2.02106 7.98841 6.41777
25 1 10.7464 9.06459 5.70166
26 1 15.0549 7.92358 4.77665
27 1 1.61718 11.2258 4.53911
28 1 5.92994 0.526544 10.4533
29 1 12.3201 7.78728 0.00864979
30 1 2.00185 6.39868 12.078
31 1 3.32122 5.641 5.27941
32 1 7.51398 11.9182 7.78043
33 1 3.23733 3.42612 1.84475
34 1 3.30424 12.9244 -0.0732259
35 1 -0.0445581 4.98641 7.47019
36 1 10.5625 14.7109 7.28181
37 1 1.01174 14.2356 1.75066
38 1 5.86307 0.873501 13.0478
39 1 0.384888 9.69367 2.90687
40 1 12.2466 12.9905 12.355
41 1 1.11582 11.9118 8.23084
42 1 13.4548 13.8654 15.0716
43 1 14.9866 14.9058 4.20258
44 1 8.30077 12.7301 11.8917
45 1 12.0314 5.88667 7.14135
46 1 9.7263 10.2508 7.99512
47 1 10.0678 11.0221 12.8816
48 1 8.62284 12.3488 5.3057
49 1 3.65956 1.65271 13.9331
50 1 6.12559 13.4258 13.2191
51 1 4.14985 6.20032 8.73901
52 1 11.1789 0.158385 12.8957
53 1 7.3942 13.9513 3.48698
54 1 4.58342 2.15491 3.72828
55 1 12.1382 11.3037 8.52631
56 1 8.92421 10.2272 0.0251877
57 1 2.04717 1.44597 8.15446
58 1 8.54831 5.26668 11.6415
59 1 0.671667 9.42806 8.7387
60 1 10.1239 10.5697 3.65389
61 1 11.576 3.84907 14.4082
62 1 10.1215 7.00083 10.4831
63 1 4.62854 9.98473 9.74813
64 1 8.16989 8.10823 1.54292
65 1 14.0127 7.23583 8.1333
66 1 4.88145 14.697 3.75195
67 1 5.73905 1.7496 6.48009
68 1 1.4134 0.0620247 10.321
69 1 11.2089 12.598 1.89823
70 1 8.81588 3.96351 9.26485
71 1 15.0979 12.628 5.65815
72 1 5.03824 11.0822 7.22264
73 1 0.806658 7.52703 14.1297
74 1 0.578331 4.19427 11.6006
75 1 15.1104 0.692342 12.6033
76 1 12.3432 12.7435 6.00425
77 1 6.28785 1.0459 1.11047
78 1 5.54121 8.02105 7.51967
79 1 4.72854 3.96767 14.9811
80 1 14.5035 1.74567 0.604596
81 1 8.15514 1.19678 3.05763
82 1 10.2968 2.02876 10.5393
83 1 1.99035 4.20824 8.86041
84 1 12.373 14.8674 4.31946
85 1 9.66611 4.57045 4.91666
86 1 8.29062 6.16833 14.7678
87 1 2.63162 2.192 11.6056
88 1 10.0908 14.5544 10.66
89 1 14.7798 11.3241 0.967175
90 1 9.6558 3.20324 12.6943
91 1 7.6126 3.75295 3.48396
92 1 3.17766 12.694 2.74369
93 1 13.0702 3.767 7.95634
94 1 1.22042 7.68481 1.63802
95 1 13.2569 9.84538 12.6772
96 1 6.44689 2.8299 8.94266
97 1 6.06495 4.37734 5.57419
98 1 12.8125 2.1886 12.5608
99 1 8.70473 7.25339 5.76316
100 1 2.85332 8.108 10.014
101 1 4.28364 12.077 11.7154
102 1 0.984107 12.2285 12.1342
103 1 6.47463 8.38059 4.67327
104 1 9.24171 9.53913 10.5593
105 1 7.65491 14.3871 8.69524
106 1 1.03494 13.941 14.093
107 1 7.05474 3.9103 1.02952
108 1 12.4764 6.59982 11.0588
109 1 6.93388 9.44379 13.6157
110 1 6.817 6.98448 12.8047
111 1 3.81678 9.63597 5.01967
112 1 1.35029 1.03668 5.68251
113 1 8.79285 12.9654 1.23489
114 1 3.62941 15.0244 6.29109
115 1 10.7482 8.22957 2.63808
116 1 3.84462 14.1694 10.1232
117 1 5.19665 11.3318 1.84478
118 1 3.20605 10.8229 14.001
119 1 12.2085 2.95033 1.72183
120 1 12.3892 13.4965 9.77831
121 1 13.7488 6.68876 13.3152
122 1 10.7304 0.743026 2.40462
123 1 1.80931 1.5575 0.863181
124 1 8.2286 0.738765 5.94403
125 1 12.3493 10.4538 0.181337
126 1 13.2894 4.06138 10.5621
127 1 12.9338 4.00015 4.33313
128 1 4.70706 9.47492 0.176221
129 2 4.66305 4.80415 11.8557
130 2 4.16468 4.88264 13.401
131 2 13.986 4.57262 14.3269
132 2 -0.0975442 4.15994 13.3078
133 2 7.40228 9.77624 3.92275
134 2 8.21903 10.7966 2.96856
135 2 0.992156 4.11093 4.43772
136 2 2.12862 3.47625 3.61069
137 2 14.6118 9.38523 9.76972
138 2 13.4385 9.4233 10.8898
139 2 9.78638 0.37033 0.521062
140 2 8.74754 0.780453 14.7949
141 2 13.2303 10.0979 7.35824
142 2 13.5409 10.6663 5.79237
143 2 3.5428 13.3109 8.7587
144 2 3.55911 13.6804 7.23532
145 2 3.29985 5.02702 2.54428
146 2 3.44297 6.13324 3.4377
147 2 5.07432 8.22869 1.55903
148 2 4.84199 6.83315 2.10134
149 2 13.4936 6.79998 2.91262
150 2 14.7419 6.75126 2.1322
151 2 0.885612 9.0782 14.1678
152 2 0.0997254 10.3633 14.8193
153 2 14.2611 4.74388 4.61271
154 2 14.9904 6.05479 4.44138
155 2 10.4637 6.17228 7.7168
156 2 9.02756 6.61895 7.24269
157 2 12.1904 6.58258 5.5234
158 2 11.5472 7.43824 4.141
159 2 9.89464 2.77079 7.72048
160 2 9.81652 3.47175 6.21601
161 2 4.11697 2.9853 10.9884
162 2 5.23796 3.35364 9.75318
163 2 7.56168 10.0191 10.7755
164 2 7.11929 11.398 11.1085
165 2 7.69378 2.70681 15.1186
166 2 7.20632 1.66461 14.073
167 2 6.26447 13.3176 14.9225
168 2 4.76116 13.6704 0.210889
169 2 14.0488 13.6709 10.0784
170 2 0.0896306 12.7773 10.9146
171 2 11.3854 2.00282 6.12114
172 2 12.4735 1.10988 5.47802
173 2 11.3564 6.3669 12.5346
174 2 11.3467 6.8006 14.125
175 2 1.15808 8.14006 5.87955
176 2 1.98082 8.46269 7.20851
177 2 11.768 9.04106 5.81962
178 2 10.7055 9.47769 4.8574
179 2 14.1883 8.19004 4.86914
180 2 -0.0749649 8.49588 4.05736
181 2 1.10001 11.752 5.09781
182 2 2.28475 10.6037 4.79802
183 2 6.05177 1.23967 9.90048
184 2 5.23485 -0.0705752 9.99764
185 2 12.5671 8.82294 -0.00890525
186 2 12.795 7.52041 0.696235
187 2 2.43977 7.08652 11.4886
188 2 2.82876 5.98663 12.367
189 2 2.70262 6.30844 5.89587
190 2 2.78696 4.89665 5.16057
191 2 7.40183 12.6015 8.38528
192 2 7.76773 12.2258 6.75914
193 2 2.44215 2.6891 1.55087
194 2 3.71356 2.64844 2.32426
195 2 3.31976 11.8424 14.8277
196 2 3.03073 12.7322 0.840617
197 2 0.116859 5.02593 6.50857
198 2 14.9115 5.75859 7.80686
199 2 10.7852 14.8899 8.07486
200 2 11.1667 14.0337 6.81305
201 2 1.90509 13.9135 2.11409
202 2 1.25102 15.1265 1.34154
203 2 6.16355 -0.0174099 13.2173
204 2 5.92719 1.05022 11.9537
205 2 1.01584 9.04481 2.38265
206 2 1.03672 10.4348 3.45309
207 2 11.8008 13.672 12.5325
208 2 11.7872 12.3087 12.6655
209 2 2.106 12.2629 8.28372
210 2 0.642113 12.3724 8.94857
211 2 13.5712 14.8531 14.9688
212 2 13.6389 13.305 14.2035
213 2 14.1242 14.9131 3.90505
214 2 0.420202 14.623 3.24393
215 2 8.65901 13.4352 11.2807
216 2 9.11602 12.3317 12.3548
217 2 12.7262 6.48572 7.63698