ITEM: TIMESTEP
0
ITEM: NUMBER OF ATOMS
384
ITEM: BOX BOUNDS pp pp pp
-3.1180958401302572e-01 1.5311809584013066e+01
-3.1180958401302572e-01 1.5311809584013066e+01
-3.1180958401302572e-01 1.5311809584013066e+01
ITEM: ATOMS id type x y z
1 1 4.57679 5.50123 13.6944
2 1 14.8875 3.66367 14.1079
3 1 8.20115 10.8513 3.91518
4 1 1.55859 4.11103 4.68534
5 1 14.0046 11.0534 10.4291
6 1 10.1562 -0.0244194 -0.0179537
7 1 13.1461 9.78511 5.92123
8 1 3.48566 13.6848 7.87681
9 1 3.32305 6.30373 3.20589
10 1 5.30735 8.37688 2.36991
11 1 13.7801 6.32188 1.70807
12 1 0.692367 10.1945 14.1186
13 1 15.0627 5.43363 4.6639
14 1 9.98456 5.97612 7.92121
15 1 12.4056 7.19481 3.96576
16 1 9.83562 2.64919 6.79506
17 1 4.60459 4.17249 11.4106
18 1 7.55062 10.3381 11.1669
19 1 8.27543 1.89543 14.4455
20 1 5.83253 14.0038 0.549654
21 1 -0.277952 13.5963 10.2649
22 1 12.6457 2.09652 6.28487
23 1 10.7129 7.40871 14.2399
24 1 2.2119 7.88472 6.40809
25 1 10.4542 9.69036 5.97773
26 1 -0.282536 8.22967 4.81222
27 1 1.6652 11.2607 4.20606
28 1 6.17365 -0.094545 10.725
29 1 12.1932 8.4542 0.381712
30 1 2.29814 6.67565 12.652
31 1 3.74006 5.65533 5.77839
32 1 7.64075 12.3667 7.75101
33 1 2.57949 3.81144 2.08856
34 1 3.31976 13.3432 0.0677147
35 1 -0.0967938 5.37115 7.46928
36 1 11.1426 14.5448 7.59235
37 1 1.26174 14.8074 2.57217
38 1 6.41618 0.335516 13.3898
39 1 0.207637 9.92258 2.18818
40 1 12.6731 13.1901 12.8323
41 1 1.29363 11.9761 7.9846
42 1 13.2286 14.8362 0.439531
43 1 -0.123887 15.1905 5.01064
44 1 8.80795 12.7708 12.0788
45 1 12.4172 6.75949 6.79319
46 1 9.49869 10.6014 8.40823
47 1 10.544 10.9934 13.3575
48 1 8.99001 12.8372 5.44675
49 1 4.04829 1.51716 14.6149
50 1 6.69928 13.1999 13.7041
51 1 4.43379 6.10378 9.26553
52 1 11.4216 -0.0969869 13.0672
53 1 8.10878 14.4288 3.40524
54 1 4.3962 2.37166 3.28729
55 1 12.1316 11.4523 8.45349
56 1 8.7458 10.8517 -0.213292
57 1 1.53862 1.7361 8.48855
58 1 8.69585 5.89847 11.616
59 1 1.22107 9.19196 8.49846
60 1 10.635 10.5731 3.14594
61 1 11.4957 4.51089 15.2148
62 1 10.9209 6.7156 10.446
63 1 4.94638 10.4223 10.3546
64 1 7.94749 8.55464 1.09697
65 1 14.5919 7.80968 8.4877
66 1 5.26248 14.7619 3.62401
67 1 5.62202 2.26942 6.97039
68 1 1.29568 -0.0251437 10.348
69 1 11.6689 12.7598 1.5126
70 1 8.10674 4.34492 9.29769
71 1 15.2574 12.5827 5.71394
72 1 5.13758 11.4238 7.95676
73 1 0.807368 7.59384 14.5622
74 1 1.07308 4.35508 11.6836
75 1 -0.103901 0.899318 12.6958
76 1 12.4336 12.7126 5.99741
77 1 6.5124 0.898083 1.44852
78 1 5.22926 7.74021 7.34722
79 1 4.69818 3.85809 0.25821
80 1 14.6318 1.53081 0.260033
81 1 8.7843 1.26425 2.88569
82 1 10.1715 2.86217 10.2074
83 1 1.97586 4.56417 8.94346
84 1 12.6683 15.2799 4.82665
85 1 10.1623 4.44247 4.67024
86 1 8.26116 6.29332 15.2182
87 1 2.75694 2.33071 12.3211
88 1 10.1168 15.0402 10.6766
89 1 0.0214213 11.8389 0.424274
90 1 9.92368 3.73613 12.9889
91 1 7.93039 3.8304 3.09944
92 1 3.45334 12.7245 2.72154
93 1 13.7442 3.34545 8.32257
94 1 1.06378 7.50528 1.70711
95 1 13.5608 9.51663 12.896
96 1 6.16563 2.34739 9.6158
97 1 6.00658 4.12469 4.96415
98 1 13.0409 2.11594 12.6389
99 1 9.44842 7.22402 5.61094
100 1 3.08802 8.31472 10.412
101 1 4.27645 12.564 12.0172
102 1 0.247817 12.7339 12.6695
103 1 6.92237 8.32243 4.80264
104 1 10.2096 9.4039 11.0142
105 1 8.10819 14.6608 9.11245
106 1 0.724807 14.5893 14.8093
107 1 7.38606 3.87893 0.612739
108 1 13.59 6.17467 11.3541
109 1 6.57455 9.82429 14.0409
110 1 6.72525 7.05567 13.1783
111 1 3.66994 10.3273 5.96103
112 1 1.66543 1.60839 5.77048
113 1 9.05834 13.0173 1.11863
114 1 4.11235 0.213829 6.02437
115 1 10.3679 8.11545 2.36753
116 1 3.8208 14.5044 10.4834
117 1 6.27696 11.8524 2.07137
118 1 3.1417 11.1769 14.1451
119 1 12.971 3.21476 1.56998
120 1 12.4061 13.5738 10.1924
121 1 14.0948 6.56232 13.8874
122 1 11.4172 0.689063 2.37021
123 1 1.65778 1.52802 1.12949
124 1 7.74882 0.714644 6.86752
125 1 13.0368 10.8806 0.0461404
126 1 14.1536 3.59273 10.8941
127 1 12.9937 3.74289 4.44237
128 1 4.93288 10.2326 0.481908
129 2 4.52916 4.87676 12.9369
130 2 4.69703 5.06241 14.547
131 2 14.6886 4.58995 14.3163
132 2 0.0945933 3.63697 13.6264
133 2 7.74221 10.0755 4.24889
134 2 8.99342 10.7228 3.34745
135 2 0.788771 4.72927 4.53377
136 2 1.81069 3.95163 3.77685
137 2 14.4008 11.9252 10.4575
138 2 13.9069 10.7269 11.3647
139 2 10.6725 0.201823 0.765773
140 2 9.47367 0.652849 -0.0632908
141 2 13.5922 9.97565 6.76473
142 2 13.2152 10.5455 5.32572
143 2 3.67781 14.0964 8.7488
144 2 3.53939 14.3835 7.27865
145 2 3.09567 5.45978 2.78243
146 2 3.60518 6.19337 4.09913
147 2 5.08995 9.05489 1.76222
148 2 4.54185 7.79795 2.5309
149 2 13.4381 6.67871 2.59019
150 2 14.7355 6.25337 1.79471
151 2 0.77524 9.18308 14.2443
152 2 0.388115 10.6288 14.9234
153 2 14.1894 4.91997 4.56536
154 2 14.9228 6.4107 4.60147
155 2 10.8762 5.93786 7.61697
156 2 9.58879 6.53361 7.20672
157 2 12.1014 7.06547 4.8105
158 2 11.5829 7.27566 3.48345
159 2 9.70669 3.06202 7.62541
160 2 9.96186 3.35305 6.0781
161 2 3.89127 3.51534 11.556
162 2 5.31618 3.63484 11.0911
163 2 8.36256 9.80951 10.99
164 2 7.91946 11.2623 11.3115
165 2 7.80256 2.56448 14.9346
166 2 7.58248 1.21916 14.1315
167 2 6.10462 13.5421 -0.242407
168 2 4.85977 13.825 0.528199
169 2 14.4101 13.8153 10.1623
170 2 -0.0704958 13.4422 11.1966
171 2 11.7088 2.1063 6.54679
172 2 12.6961 1.18401 5.89058
173 2 10.9921 7.5299 13.3514
174 2 11.2636 8.01166 14.7268
175 2 1.57728 7.89927 5.7134
176 2 1.87051 8.36741 7.16573
177 2 11.4302 9.71213 6.20698
178 2 10.3486 10.1292 5.1128
179 2 14.4149 8.445 5.04536
180 2 0.00164071 8.8165 4.03796
181 2 1.02838 11.8189 4.67407
182 2 2.36173 10.8675 4.79517
183 2 6.32838 0.734699 10.265
184 2 5.21972 -0.301306 10.6492
185 2 12.568 9.37229 0.310345
186 2 12.8634 7.95827 0.824663
187 2 2.56428 7.41349 12.0109
188 2 3.14156 6.4193 13.0935
189 2 3.16723 6.41343 5.9805
190 2 3.10221 4.98312 5.63197
191 2 7.73547 13.1577 8.33842
192 2 8.06104 12.6116 6.87934
193 2 1.75422 3.38105 1.7562
194 2 3.25148 3.1727 2.47226
195 2 3.15037 12.6412 14.9757
196 2 3.16776 12.9566 0.983888
197 2 0.0720948 5.37286 6.52711
198 2 -0.245356 6.34024 7.61737
199 2 11.6512 14.8569 8.35832
200 2 11.802 13.9131 7.23812
201 2 2.07792 14.3411 2.56175
202 2 1.50629 0.044002 2.08403
203 2 6.3968 14.9261 13.4491
204 2 6.20534 0.425411 12.4267
205 2 0.660795 9.1318 1.85703
206 2 0.694078 10.391 2.87312
207 2 12.3708 14.0972 13.0916
208 2 12.1841 12.5232 13.366
209 2 2.09163 12.5603 7.87369
210 2 0.901668 12.2269 8.80367
211 2 13.6981 0.109016 0.335681
212 2 13.4443 14.3386 15.279
213 2 14.5376 15.2076 4.93591
214 2 0.228484 14.9795 4.13145
215 2 9.24837 13.4527 11.622
216 2 9.52013 12.2417 12.5392
217 2 12.875 7.30125 7.44426
218 2 13.1287 6.09272 6.70831
219 2 8.70364 11.2231 8.31889
220 2 9.67729 10.2938 7.51515
221 2 10.4955 10.2933 12.7118
222 2 10.0325 10.7711 14.1408
223 2 9.87115 13.0955 5.5737
224 2 8.95145 12.0108 4.93614
225 2 4.74251 0.928236 14.2575
226 2 3.48888 1.81195 13.8977
227 2 7.56401 13.1017 13.1985
228 2 6.02622 12.6782 13.2435
229 2 3.65548 5.64787 8.88705
230 2 4.53028 5.65688 10.1121
231 2 10.7483 -0.0654962 13.7661
232 2 11.7812 0.808853 13.0779
233 2 8.36482 -0.291862 3.46612
234 2 8.34757 14.0066 4.25098
235 2 5.1094 1.81781 2.95108
236 2 4.6411 2.96006 4.03817
237 2 12.5339 11.0417 9.22128
238 2 11.1841 11.2095 8.49369
239 2 8.60742 10.312 0.576946
240 2 8.69537 11.7883 0.0583599
241 2 1.42282 1.68337 7.50469
242 2 1.60998 2.65673 8.73322
243 2 8.87953 5.11923 12.1645
244 2 8.03029 6.40716 12.1505
245 2 1.95332 8.95172 9.16853
246 2 1.28006 10.1574 8.3047
247 2 11.2632 11.2403 2.79611
248 2 10.7957 9.70539 2.72449
249 2 11.5653 5.40273 -0.288322
250 2 11.1896 4.32648 14.2564
251 2 10.4204 6.65681 9.62663
252 2 10.2607 6.46258 11.0571
253 2 5.87632 10.1769 10.5904
254 2 4.94364 10.8143 9.46912
255 2 7.91802 7.6928 0.604333
256 2 7.17835 8.74025 1.63464
257 2 14.2008 7.92642 9.35992
258 2 -0.267797 8.44072 8.55252
259 2 6.16366 14.3915 3.8125
260 2 4.75946 14.0077 3.26281
261 2 6.35085 1.60272 6.90857
262 2 4.84301 1.75402 6.76165
263 2 1.34137 0.662419 9.62968
264 2 0.817817 14.7755 10.0578
265 2 10.8342 13.0339 1.10914
266 2 12.2496 13.5788 1.43103
267 2 7.99168 4.93257 10.0429
268 2 8.59208 4.87508 8.55834
269 2 -0.0863874 13.5026 5.64494
270 2 0.00602987 12.1735 6.56287
271 2 6.0476 11.6847 7.84187
272 2 4.65027 12.2574 7.8746
273 2 -0.10786 7.21382 14.4417
274 2 1.40859 7.20909 13.8607
275 2 1.10879 5.19843 12.1297
276 2 0.142322 4.18446 11.4107
277 2 0.192301 0.569522 11.8253
278 2 0.262058 0.216297 13.3227
279 2 13.325 12.966 5.76917
280 2 12.474 12.1815 6.79075
281 2 6.96454 1.33987 0.72514
282 2 6.22808 -0.0168944 1.14781
283 2 5.28424 6.95392 7.95734
284 2 5.69738 8.44349 7.79401
285 2 4.59695 2.96295 -0.156096
286 2 4.05776 3.8329 1.0606
287 2 14.2623 2.20361 0.861912
288 2 14.7961 2.02476 15.1013
289 2 7.90736 0.984376 2.41964
290 2 8.42535 2.08554 3.23522
291 2 9.33834 3.30929 9.83257
292 2 10.1754 1.88055 10.1119
293 2 1.75381 4.52695 9.90946
294 2 1.11552 4.78978 8.54253
295 2 12.2645 0.0873025 4.07993
296 2 12.0334 14.6435 5.15054
297 2 9.97133 5.30379 5.02216
298 2 9.51596 4.30903 3.95105
299 2 9.11176 6.41377 14.7882
300 2 7.57568 6.54 14.599
301 2 2.07189 2.92609 11.9449
302 2 2.69894 1.52435 11.845
303 2 10.8501 14.3815 10.4642
304 2 10.5118 -0.206863 11.478
305 2 0.274248 12.7719 0.61942
306 2 0.108425 11.2293 1.22179
307 2 9.70727 2.84376 13.3266
308 2 10.3129 3.49932 12.1129
309 2 7.16744 3.93944 3.6373
310 2 7.68964 3.77425 2.12389
311 2 2.7812 12.2345 3.34142
312 2 4.17512 12.108 2.65722
313 2 13.4252 2.63657 7.76521
314 2 14.4885 3.85196 7.85505
315 2 1.16553 7.50623 0.684607
316 2 1.80702 6.9489 2.01705
317 2 14.4305 9.58843 13.243
318 2 13.0187 10.0336 13.4694
319 2 5.70123 2.57075 8.68482
320 2 6.80813 3.05178 9.52933
321 2 5.35787 4.80808 5.12533
322 2 5.96938 3.53575 5.71789
323 2 13.0854 2.74416 13.3668
324 2 13.871 1.59988 12.7008
325 2 8.54415 7.16809 5.28465
326 2 9.76316 8.11779 5.62097
327 2 3.5805 7.58031 10.0651
328 2 3.76188 9.05652 10.3377
329 2 4.55808 11.8882 11.3243
330 2 3.56374 12.075 12.5347
331 2 0.334551 11.7965 12.6005
332 2 0.24849 12.8839 13.5924
333 2 6.35726 8.22802 5.65351
334 2 6.38531 8.12785 4.02112
335 2 10.214 9.5859 10.0692
336 2 10.6644 8.57403 11.1276
337 2 8.95214 14.8857 9.64428
338 2 7.3584 14.7538 9.70982
339 2 0.591563 15.0693 0.0182509
340 2 1.70203 14.3696 14.7724
341 2 6.4741 3.89198 0.306924
342 2 7.8908 4.74294 0.474307
343 2 13.7745 5.25403 11.174
344 2 12.6407 6.3597 11.1641
345 2 6.61181 10.3071 13.1711
346 2 7.38294 10.2018 14.4287
347 2 5.92965 6.53312 13.3142
348 2 6.65131 8.00804 13.4902
349 2 4.1508 10.9057 6.58172
350 2 3.72612 9.43762 6.27968
351 2 0.960879 1.05271 5.33877
352 2 1.48012 2.49213 5.40543
353 2 8.71011 13.4532 1.93204
354 2 8.99593 13.78 0.520382
355 2 3.28533 0.709593 5.89467
356 2 4.52263 -0.105961 5.1872
357 2 10.8957 8.12501 1.5533
358 2 9.392 8.09909 2.00114
359 2 2.85608 14.8006 10.6062
360 2 3.90293 13.7417 11.0449
361 2 6.48734 12.6937 1.54518
362 2 7.04029 11.6822 2.67807
363 2 2.24681 10.7375 14.3261
364 2 3.668 10.6767 14.8241
365 2 12.3482 3.69431 0.972113
366 2 13.2921 3.83378 2.19605
367 2 12.5073 12.8061 9.60602
368 2 12.5354 13.311 11.1419
369 2 13.9506 6.55755 12.8999
370 2 13.4462 7.1125 14.3857
371 2 11.8334 1.45816 2.05064
372 2 10.4376 0.894116 2.52875
373 2 0.844146 1.54638 0.605455
374 2 2.39804 1.38307 0.478242
375 2 7.77884 0.12269 7.66547
376 2 8.60235 1.23456 6.91956
377 2 12.4122 11.5105 0.551261
378 2 13.9301 11.2794 0.187093
379 2 13.8259 3.47873 9.96028
380 2 13.5184 3.1733 11.5056
381 2 12.9666 3.11167 5.2382
382 2 12.0906 4.05916 4.29522
383 2 5.48443 10.7696 1.07083
384 2 5.47524 10.05 -0.286949
ITEM: TIMESTEP
200
ITEM: NUMBER OF ATOMS
384
ITEM: BOX BOUNDS pp pp pp
-2.1868351273538700e-01 1.5218683512735430e+01
-2.1868351273538700e-01 1.5218683512735430e+01
-2.1868351273538700e-01 1.5218683512735430e+01
ITEM: ATOMS id type x y z
1 1 4.48755 5.64826 13.1519
2 1 14.5227 3.89757 13.9542
3 1 7.60951 10.5963 3.79381
4 1 1.74066 3.73038 4.61229
5 1 13.6446 10.1825 10.2803
6 1 9.97524 0.228444 -0.0198935
7 1 13.31 9.6355 6.01922
8 1 3.33406 13.582 7.66582
9 1 3.15537 6.42959 2.89111
10 1 5.57522 7.84761 2.51485
11 1 13.7728 6.56955 1.85665
12 1 0.612032 10.065 13.8147
13 1 14.943 5.41007 4.88969
14 1 9.88204 5.93107 7.91305
15 1 12.2385 7.00042 4.01377
16 1 9.93336 2.73481 6.74639
17 1 4.716 3.85643 11.1766
18 1 7.30543 10.3535 11.327
19 1 8.34266 2.00239 14.4262
20 1 5.80714 13.9388 0.609916
21 1 -0.143665 13.3085 9.99881
22 1 12.487 1.85234 6.26944
23 1 10.6464 7.11543 14.2132
24 1 1.9365 7.85048 6.33283
25 1 10.3946 9.22123 5.77572
26 1 15.1049 8.20471 4.71437
27 1 1.74488 11.4253 4.42467
28 1 5.96843 0.328073 10.5544
29 1 12.2205 8.01475 0.350885
30 1 2.24519 6.56878 12.2981
31 1 3.55619 5.71545 5.37549
32 1 7.68294 11.9341 7.85619
33 1 3.13196 3.57511 2.23063
34 1 3.02096 13.3212 0.174746
35 1 -0.0113117 5.32869 7.60792
36 1 10.7022 14.5684 7.38828
37 1 1.23378 14.5454 2.30666
38 1 6.10288 0.445681 13.3158
39 1 0.377797 9.94082 2.75457
40 1 12.26 13.1119 12.5263
41 1 0.946909 12.2519 8.06121
42 1 13.473 14.2496 0.218899
43 1 -0.0324101 14.9655 4.48557
44 1 8.52712 12.7018 11.8065
45 1 12.5083 6.30761 6.79155
46 1 9.71617 10.2865 8.2563
47 1 10.4505 11.0222 12.8256
48 1 8.84235 12.364 5.36758
49 1 3.9593 1.618 14.2829
50 1 6.50599 13.2558 13.4083
51 1 4.14412 5.95483 9.29261
52 1 11.2542 0.0244976 13.1277
53 1 7.55676 14.2268 3.51703
54 1 4.70563 2.09491 3.57738
55 1 12.2757 11.1811 8.37735
56 1 8.84687 10.5475 -0.177758
57 1 1.66851 1.77679 8.40704
58 1 8.51015 5.54819 11.5588
59 1 1.17109 9.15471 8.52927
60 1 10.4444 10.5715 3.35267
61 1 11.5534 4.32483 14.8744
62 1 10.4799 6.91372 10.4958
63 1 4.8571 10.1807 10.0804
64 1 7.96998 8.059 1.31907
65 1 14.3388 7.52946 8.66951
66 1 4.92686 14.8194 3.75495
67 1 5.77923 1.91779 6.83096
68 1 1.34013 0.446985 10.3832
69 1 11.4226 12.4191 1.74362
70 1 8.21928 4.27003 9.37261
71 1 15.1442 12.506 5.72026
72 1 4.91854 11.3777 7.5274
73 1 0.95341 7.47533 14.4064
74 1 1.09974 4.27808 11.7663
75 1 -0.0797942 0.58424 12.7715
76 1 12.4428 12.5216 6.04044
77 1 6.1622 1.05522 1.45745
78 1 5.53337 8.05044 6.9902
79 1 4.59568 3.96902 -0.208385
80 1 14.4457 1.80032 0.330787
81 1 8.54894 1.31227 2.6033
82 1 10.1493 2.55098 10.2393
83 1 1.8637 4.38429 8.86539
84 1 12.6478 15.0813 4.24678
85 1 10.1931 4.78766 4.8707
86 1 8.30273 6.31402 14.941
87 1 2.77181 2.22756 12.1139
88 1 9.91882 14.7415 10.7145
89 1 -0.193092 11.2727 0.736603
90 1 9.69988 3.53623 12.7918
91 1 7.94009 3.89828 3.56501
92 1 3.2803 12.6808 2.68608
93 1 13.4304 3.50883 8.18997
94 1 0.750026 7.50775 1.71345
95 1 13.399 10.0035 12.7152
96 1 6.15543 2.73998 9.34056
97 1 5.7862 3.88906 5.19248
98 1 13.1172 1.85592 12.6664
99 1 8.91241 6.97158 5.4362
100 1 3.14359 8.19244 10.3083
101 1 4.41777 12.2089 12.0278
102 1 0.617482 12.7125 12.3698
103 1 6.78684 8.47409 4.7482
104 1 9.76295 9.54186 10.7586
105 1 7.92606 14.4776 8.94007
106 1 0.802818 14.3725 14.5329
107 1 7.33094 3.97937 0.281588
108 1 13.3615 6.61139 10.8631
109 1 6.6285 9.50433 13.6365
110 1 6.71421 6.91383 13.1024
111 1 3.56574 9.79051 5.63218
112 1 1.54151 1.23925 5.66751
113 1 9.12843 13.2297 1.03454
114 1 3.93226 0.186652 6.10583
115 1 10.4229 8.13318 2.30712
116 1 3.70848 14.1934 10.2864
117 1 5.64115 11.6155 2.21616
118 1 3.19361 11.0793 14.1816
119 1 12.3096 2.9045 1.58016
120 1 12.5016 13.6681 10.0921
121 1 13.9487 6.50871 13.6127
122 1 11.1585 0.857334 2.46319
123 1 1.8171 1.39673 1.05003
124 1 8.06054 0.697467 6.6936
125 1 12.693 10.6506 -0.144811
126 1 14.0133 3.80076 10.7403
127 1 12.5643 4.15946 4.04616
128 1 4.97836 9.70485 0.425443
129 2 4.57838 5.00489 12.388
130 2 4.26684 5.26364 14.0278
131 2 14.1069 4.76524 13.8804
132 2 -0.121025 4.02563 13.4095
133 2 7.36386 9.75305 4.21076
134 2 8.67159 10.5853 3.61555
135 2 0.943175 4.3817 4.65726
136 2 2.28957 3.85389 3.76076
137 2 14.3757 10.8057 10.2706
138 2 13.4474 10.1858 11.2671
139 2 10.3359 0.46814 0.975542
140 2 9.04743 0.801401 15.1598
141 2 13.3803 9.72727 7.10663
142 2 13.423 10.6608 5.87657
143 2 3.50023 13.8901 8.57422
144 2 3.59388 14.2639 6.9243
145 2 2.86716 5.72083 2.35624
146 2 3.19411 6.29976 3.88786
147 2 5.36846 8.71344 1.90836
148 2 4.85367 7.34807 2.68443
149 2 13.2418 6.69651 2.72158
150 2 14.7684 6.85537 1.93038
151 2 0.844343 9.03528 13.7803
152 2 0.389096 10.2614 14.8018
153 2 14.0351 5.12398 4.66117
154 2 14.8968 6.33853 4.44947
155 2 10.7948 6.0214 7.42635
156 2 9.45601 6.63577 7.38903
157 2 12.4011 7.00837 5.06214
158 2 11.4491 7.7177 3.78454
159 2 9.53387 3.00486 7.6751
160 2 10.0275 3.62587 6.28537
161 2 4.27242 3.02219 11.2121
162 2 5.50336 3.57515 10.495
163 2 8.21549 9.88187 11.3027
164 2 7.44409 11.2825 11.2304
165 2 7.94116 2.70197 15.0645
166 2 7.63521 1.66372 14.0282
167 2 6.18595 13.5362 15.0665
168 2 4.81559 13.9532 0.37052
169 2 14.3237 13.5212 10.0775
170 2 0.188465 13.0098 10.9098
171 2 11.6014 1.82363 6.5572
172 2 12.5091 0.95493 5.63021
173 2 10.8643 7.29662 13.1917
174 2 11.3235 7.548 14.8479
175 2 1.26555 7.73159 5.68323
176 2 1.71271 8.45243 7.13893
177 2 11.3113 9.01708 5.91855
178 2 10.5386 9.86609 4.95587
179 2 14.5298 8.79164 5.31639
180 2 0.18049 8.88044 3.98252
181 2 1.06701 12.0109 4.86342
182 2 2.33487 10.8474 4.74493
183 2 6.10022 1.11166 9.89024
184 2 5.02081 0.0564508 10.4521
185 2 12.464 8.90388 0.100731
186 2 13.2711 7.33531 0.794699
187 2 2.4272 7.19479 11.5037
188 2 3.08764 6.23133 12.6139
189 2 3.08889 6.39513 5.72413
190 2 2.88785 4.9827 5.3239
191 2 7.74201 12.7467 8.37602
192 2 8.0623 12.0911 6.89682
193 2 2.65221 2.85307 1.60135
194 2 3.70134 2.73026 2.81228
195 2 2.8764 12.5777 15.0593
196 2 2.95594 13.0307 1.01956
197 2 -0.120119 5.54778 6.59704
198 2 15.0173 6.18511 7.91503
199 2 11.388 -0.12689 7.34616
200 2 11.2101 13.7345 7.0111
201 2 2.17796 13.9972 2.54067
202 2 1.62759 -0.149164 1.6579
203 2 6.18843 14.705 13.3887
204 2 6.09312 0.226932 12.3391
205 2 0.848248 9.18671 2.30102
206 2 0.984898 10.488 3.50322
207 2 11.6994 13.8472 12.6256
208 2 11.5252 12.2217 12.4751
209 2 1.65 12.6924 7.78317
210 2 0.421676 12.9871 8.72737
211 2 13.315 15.1749 0.321714
212 2 13.564 14.1864 14.7442
213 2 14.5301 15.1868 4.31556
214 2 0.437563 14.8742 3.68397
215 2 8.98946 13.3607 11.2507
216 2 9.3276 12.3293 12.2252
217 2 13.0106 6.53347 7.56003
218 2 12.8933 5.45118 6.57989
219 2 8.88259 10.9428 8.13101
220 2 9.84278 9.92651 7.39335
221 2 10.1091 10.281 12.1973
222 2 9.99899 10.6756 13.5053
223 2 9.85946 12.1908 5.25158
224 2 8.4762 11.6975 4.78951
225 2 4.6465 1.03136 14.0246
226 2 3.59589 1.8502 13.4955
227 2 7.37739 13.0372 12.9247
228 2 5.68919 13.0223 12.8582
229 2 3.48077 5.18089 9.06428
230 2 4.72096 5.64546 9.95946
231 2 10.9179 0.284305 13.9277
232 2 12.003 0.657709 12.9525
233 2 7.92138 15.0129 3.45422
234 2 8.15192 13.7662 4.1847
235 2 5.10308 1.64328 2.82137
236 2 5.40011 2.75104 4.00779
237 2 12.7214 10.9593 9.22554
238 2 11.2736 10.8324 8.23703
239 2 8.4416 9.83251 0.501038
240 2 8.80816 11.3718 0.259241
241 2 1.3856 1.49361 7.45362
242 2 1.6829 2.81545 8.45139
243 2 8.85024 4.78287 12.1398
244 2 7.86598 6.08152 12.0512
245 2 1.67506 8.78304 9.41238
246 2 1.30466 10.1074 8.37306
247 2 11.0361 11.2311 2.9076
248 2 10.5862 9.70108 2.85956
249 2 11.2839 5.31571 15.04
250 2 11.0179 3.94439 13.9982
251 2 10.4049 6.34389 9.63337
252 2 9.70653 6.5295 10.9052
253 2 5.90005 10.0915 10.1673
254 2 4.85093 10.5902 9.2227
255 2 8.05071 7.36892 0.503015
256 2 7.17161 7.95086 2.006
257 2 13.9721 7.32288 9.5915
258 2 15.0387 8.15044 8.85055
259 2 5.8074 14.2933 3.75824
260 2 4.28433 13.9231 3.45413
261 2 6.62163 1.24857 6.64958
262 2 4.93487 1.39299 6.72189
263 2 1.2678 1.01431 9.57999
264 2 0.64237 15.1026 10.3607
265 2 10.5921 12.8659 1.38162
266 2 12.1601 12.9342 1.84328
267 2 8.15974 4.70205 10.281
268 2 8.74585 4.94532 8.70579
269 2 -0.0353815 13.3945 5.22768
270 2 0.32121 12.5185 6.47851
271 2 5.86489 11.5021 7.36422
272 2 4.33996 12.1217 7.48996
273 2 -0.139322 7.33841 14.0216
274 2 1.43259 7.30221 13.6725
275 2 1.65385 5.11755 11.855
276 2 0.263307 4.18249 11.1256
277 2 0.47096 0.523882 11.9086
278 2 0.631007 0.524383 13.3859
279 2 13.5964 12.7902 5.98892
280 2 12.29 11.8723 6.96779
281 2 6.42423 1.64847 0.736923
282 2 6.16634 0.0846731 1.24731
283 2 5.18915 7.27479 7.15697
284 2 4.86192 8.71142 7.2741
285 2 4.30769 3.1932 14.6855
286 2 4.17477 3.97725 0.593374
287 2 13.9163 2.10054 0.896944
288 2 14.6486 2.45217 15.0886
289 2 7.80967 1.18572 2.08034
290 2 8.38084 2.17993 3.14696
291 2 9.71806 3.19947 9.43392
292 2 10.4357 1.51305 10.1944
293 2 1.46894 4.6771 9.73681
294 2 1.17228 4.80932 8.26407
295 2 12.2505 -0.180242 3.43096
296 2 12.1612 14.295 4.69616
297 2 9.86647 5.72192 4.84493
298 2 9.59213 4.37806 4.38033
299 2 9.04402 6.70266 14.636
300 2 7.63753 6.32813 14.2352
301 2 1.99845 3.07937 12.0576
302 2 2.43531 1.67055 11.3926
303 2 10.7619 14.7388 10.4183
304 2 10.2721 15.1508 11.6083
305 2 -0.0176502 12.0959 0.914269
306 2 -0.121086 10.7193 1.58519
307 2 9.1793 2.64898 13.1917
308 2 10.1669 3.23606 11.9765
309 2 7.12988 4.0383 4.05952
310 2 7.69671 4.24089 2.74886
311 2 2.73486 12.2903 3.47976
312 2 4.16246 12.2508 2.74407
313 2 13.2968 2.83907 7.56962
314 2 14.2728 4.0272 8.06592
315 2 0.699142 7.61619 0.648107
316 2 1.59061 7.11603 2.25326
317 2 14.3724 9.90892 12.9454
318 2 12.793 10.3514 13.4334
319 2 5.98668 2.57237 8.28464
320 2 7.04968 3.49509 9.25931
321 2 5.11185 4.72567 5.26716
322 2 5.78439 3.36322 6.0025
323 2 13.0389 2.27124 13.4362
324 2 14.0298 1.30769 12.7605
325 2 8.06961 7.30244 5.02828
326 2 9.48889 7.91864 5.57545
327 2 3.49615 7.33003 10.182
328 2 3.81317 8.87832 10.1154
329 2 4.63417 11.6458 11.1876
330 2 3.97852 11.7673 12.7037
331 2 0.166254 11.8793 12.9614
332 2 0.534914 13.3812 13.0181
333 2 6.2165 8.35936 5.40537
334 2 6.2855 8.21993 3.895
335 2 9.82431 9.91141 9.79536
336 2 10.1848 8.55589 10.7742
337 2 8.61572 14.7504 9.52782
338 2 7.13242 14.7194 9.6345
339 2 0.256045 14.8853 15.1802
340 2 1.76019 14.0476 14.8813
341 2 6.37206 4.1879 0.223222
342 2 7.73367 4.9318 0.261683
343 2 13.5326 5.76068 10.7463
344 2 12.3746 6.55695 10.6898
345 2 6.96349 9.90835 12.8294
346 2 7.36782 9.85828 14.2574
347 2 5.7047 6.41845 13.1312
348 2 6.61323 7.99701 13.2616
349 2 3.74247 10.3594 6.38472
350 2 2.99597 9.00645 6.01569
351 2 0.855854 0.625276 5.31395
352 2 1.41431 2.15271 5.20399
353 2 8.61744 13.4729 1.86384
354 2 9.32241 13.9192 0.485794
355 2 2.93995 0.576607 5.97612
356 2 4.22845 -0.0666249 5.2204
357 2 11.1289 8.06858 1.56059
358 2 9.65617 7.93416 1.78663
359 2 2.92442 14.744 10.4677
360 2 3.94076 13.5975 11.1753
361 2 5.82777 12.3977 1.66744
362 2 6.32568 11.199 2.71593
363 2 2.28789 10.6625 14.0876
364 2 3.60074 10.5166 14.8497
365 2 12.0102 3.3029 0.859879
366 2 12.6646 3.42332 2.31306
367 2 12.5158 12.8492 9.70084
368 2 12.4767 13.4216 11.0456
369 2 13.721 6.60941 12.7533
370 2 13.0811 6.5386 14.1607
371 2 11.522 1.55374 2.09509
372 2 10.2925 1.12544 2.69639
373 2 0.862792 1.54168 0.711335
374 2 2.06733 1.16675 0.215434
375 2 8.10874 0.103576 7.47012
376 2 8.83361 1.35169 6.77711
377 2 12.1884 11.1983 0.482305
378 2 13.5982 10.7721 0.088271
379 2 13.8758 3.52862 9.89904
380 2 13.6977 3.04179 11.2206
381 2 12.6516 3.38545 4.61553
382 2 11.5972 4.48179 4.2259
383 2 5.54166 10.3496 0.809851
384 2 5.28996 9.50613 15.0703
ITEM: TIMESTEP
400
ITEM: NUMBER OF ATOMS
384
ITEM: BOX BOUNDS pp pp pp
-1.3021218416963443e-01 1.5130212184169675e+01
-1.3021218416963443e-01 1.5130212184169675e+01
-1.3021218416963443e-01 1.5130212184169675e+01
ITEM: ATOMS id type x y z
1 1 4.60225 5.41631 12.6216
2 1 14.5943 3.83967 14.0718
3 1 7.3242 10.7881 3.45271
4 1 1.73101 3.53389 4.45393
5 1 13.5864 9.58167 9.92448
6 1 9.42492 0.0099151 15.0125
7 1 13.3313 9.83417 6.41546
8 1 3.4142 12.9685 7.96403
9 1 3.40499 6.01914 2.4629
10 1 5.55667 7.55281 2.13909
11 1 13.8454 6.69012 2.03211
12 1 0.546995 10.0956 13.9564
13 1 -0.111924 5.23475 4.88742
14 1 9.62884 6.44923 8.04821
15 1 12.2394 6.7644 4.44143
16 1 10.2472 2.56377 6.77664
17 1 4.60391 3.7597 10.6294
18 1 6.82673 10.462 11.1407
19 1 7.95401 2.03359 14.4719
20 1 5.76829 13.4699 0.516708
21 1 15.0709 13.4161 10.1096
22 1 12.3019 1.93383 5.69263
23 1 10.7834 6.42225 13.429
24 1 2.04667 7.97923 6.40378
25 1 10.753 9.04876 5.706
26 1 15.0825 7.94018 4.74811
27 1 1.64421 11.2441 4.55993
28 1 5.94489 0.5125 10.4539
29 1 12.2872 7.81896 0.0518383
30 1 2.01005 6.41341 12.0646
31 1 3.34188 5.65221 5.25755
32 1 7.52098 11.8749 7.78635
33 1 3.21376 3.45302 1.86556
34 1 3.29389 12.9109 -0.0407083
35 1 -0.0451623 4.97192 7.45417
36 1 10.5621 14.7096 7.2579
37 1 1.02182 14.2273 1.74694
38 1 5.84867 0.848461 13.0381
39 1 0.355614 9.67585 2.90281
40 1 12.2531 13.0167 12.3463
41 1 1.14442 11.8939 8.19564
42 1 13.4701 13.8815 15.0553
43 1 15.011 14.8917 4.21448
44 1 8.30362 12.7232 11.8985
45 1 12.0371 5.88143 7.14517
46 1 9.74203 10.234 8.0188
47 1 10.0674 11.0167 12.8521
48 1 8.59697 12.3659 5.28369
49 1 3.65209 1.67302 13.9126
50 1 6.12288 13.4374 13.2174
51 1 4.16106 6.17219 8.72956
52 1 11.1531 0.160418 12.882
53 1 7.40218 13.9528 3.50299
54 1 4.60601 2.1693 3.72234
55 1 12.1562 11.3022 8.52334
56 1 8.94661 10.2517 0.0395659
57 1 2.06296 1.43799 8.1561
58 1 8.53041 5.25381 11.6289
59 1 0.662338 9.44025 8.75605
60 1 10.0977 10.5769 3.65295
61 1 11.5692 3.85251 14.3801
62 1 10.1091 6.99647 10.4993
63 1 4.60103 10.0072 9.75903
64 1 8.17162 8.11711 1.53198
65 1 14.023 7.2279 8.11577
66 1 4.88913 14.7206 3.77592
67 1 5.77743 1.76726 6.45993
68 1 1.42413 0.0837617 10.3551
69 1 11.1912 12.5966 1.90114
70 1 8.80171 3.95778 9.24155
71 1 15.0837 12.6263 5.64977
72 1 5.0228 11.0803 7.20851
73 1 0.824895 7.54969 14.1673
74 1 0.575146 4.20088 11.5596
75 1 15.1229 0.68671 12.6034
76 1 12.3624 12.7338 5.98796
77 1 6.2689 1.0378 1.11345
78 1 5.54132 8.01525 7.51485
79 1 4.71669 3.95364 14.9782
80 1 14.4766 1.74019 0.626764
81 1 8.15978 1.18283 3.04749
82 1 10.3134 2.04515 10.5395
83 1 1.98284 4.18926 8.85354
84 1 12.3649 14.9173 4.30785
85 1 9.66174 4.584 4.88517
86 1 8.27564 6.18143 14.7708
87 1 2.62096 2.212 11.5984
88 1 10.0756 14.5624 10.6613
89 1 14.7869 11.349 0.955616
90 1 9.69501 3.1956 12.7093
91 1 7.61 3.7793 3.49513
92 1 3.17716 12.7388 2.77544
93 1 13.0817 3.78344 7.97017
94 1 1.21191 7.69019 1.61852
95 1 13.2623 9.84831 12.6929
96 1 6.47397 2.8258 8.93628
97 1 6.05689 4.42052 5.5894
98 1 12.7808 2.1568 12.5535
99 1 8.72317 7.23819 5.74431
100 1 2.86537 8.12798 10.0239
101 1 4.28976 12.0812 11.7046
102 1 0.978134 12.2315 12.1519
103 1 6.45625 8.37462 4.63993
104 1 9.23383 9.54999 10.559
105 1 7.64602 14.3959 8.69969
106 1 1.03453 13.9429 14.1158
107 1 7.02027 3.93338 1.02951
108 1 12.5079 6.57154 11.0632
109 1 6.91858 9.46729 13.617
110 1 6.80937 6.96215 12.777
111 1 3.82043 9.63756 5.04616
112 1 1.34223 1.04445 5.67133
113 1 8.79506 12.9777 1.23886
114 1 3.68098 15.014 6.3248
115 1 10.7637 8.23713 2.60246
116 1 3.80946 14.1745 10.1518
117 1 5.18687 11.3652 1.83874
118 1 3.20425 10.8109 14.0032
119 1 12.1913 2.97362 1.73071
120 1 12.3839 13.5033 9.79914
121 1 13.749 6.67765 13.3277
122 1 10.7527 0.729668 2.43316
123 1 1.75067 1.5716 0.851645
124 1 8.20562 0.7205 5.93138
125 1 12.3552 10.4564 0.159887
126 1 13.3094 4.05817 10.6193
127 1 12.94 4.00764 4.3794
128 1 4.73311 9.48081 0.162705
129 2 4.67132 4.65032 11.7846
130 2 4.37886 4.84792 13.3824
131 2 13.9658 4.60846 14.3839
132 2 15.1118 4.14862 13.3154
133 2 7.45595 9.85911 3.94683
134 2 8.1652 10.8146 2.99458
135 2 0.994761 4.12182 4.45069
136 2 2.12678 3.54837 3.62978
137 2 14.6107 9.36438 9.74062
138 2 13.3214 9.44596 10.8368
139 2 9.82536 0.476214 0.490808
140 2 8.76552 0.792153 14.9061
141 2 13.2535 10.0561 7.32293
142 2 13.4959 10.6345 5.75526
143 2 3.53405 13.3885 8.81012
144 2 3.4634 13.7825 7.19472
145 2 3.36684 5.08584 2.55594
146 2 3.35737 6.16925 3.42098
147 2 5.04261 8.22927 1.64532
148 2 4.89858 6.82405 2.21349
149 2 13.4461 6.86493 2.9169
150 2 14.8134 6.73252 2.09542
151 2 0.825149 9.14337 14.1125
152 2 0.211537 10.3506 14.8678
153 2 14.2244 4.73855 4.5779
154 2 15.0067 6.10571 4.3805
155 2 10.4515 6.21552 7.83762
156 2 9.0425 6.62037 7.25784
157 2 12.1878 6.55081 5.41226
158 2 11.6083 7.40415 4.13503
159 2 9.88555 2.87465 7.73428
160 2 9.84335 3.44796 6.26925
161 2 4.13572 2.88801 10.9987
162 2 5.16534 3.3715 9.73687
163 2 7.58947 10.018 10.703
164 2 7.11404 11.3826 11.0986
165 2 7.68931 2.68208 15.0938
166 2 7.21306 1.63018 14.0428
167 2 6.161 13.338 14.8945
168 2 4.75954 13.6438 0.251184
169 2 14.0807 13.6827 10.1984
170 2 0.148202 12.8378 10.8358
171 2 11.4877 2.01263 6.05236
172 2 12.5344 1.06773 5.4264
173 2 11.3021 6.40693 12.5003
174 2 11.3005 6.81605 14.1708
175 2 1.2338 8.0792 5.866
176 2 1.90319 8.39327 7.22799
177 2 11.7013 9.09462 5.79118
178 2 10.7124 9.57745 4.87416
179 2 14.2062 8.20002 4.87056
180 2 -0.0676798 8.44791 4.00125
181 2 1.08006 11.8245 5.13191
182 2 2.28366 10.6407 4.7897
183 2 6.11916 1.26175 9.87032
184 2 5.10197 -0.126825 10.1301
185 2 12.4551 8.77532 0.0462477
186 2 12.7882 7.49431 0.778498
187 2 2.37842 7.08035 11.4805
188 2 2.88795 5.95331 12.3579
189 2 2.60503 6.18469 5.78971
190 2 2.81977 4.89052 5.03416
191 2 7.55654 12.6777 8.32822
192 2 7.77048 12.2247 6.74671
193 2 2.43401 2.70652 1.41775
194 2 3.78392 2.6587 2.3902
195 2 3.33729 11.8446 14.8885
196 2 3.01385 12.5873 0.864989
197 2 0.123318 5.11212 6.48497
198 2 15.0083 5.9411 7.81406
199 2 10.8933 14.669 8.16404
200 2 11.1978 13.9529 6.75239
201 2 2.07224 13.9252 2.10953
202 2 1.19193 15.071 1.29985
203 2 6.11858 0.00903069 13.1937
204 2 5.97879 1.07071 11.999
205 2 1.02165 9.04472 2.49606
206 2 1.08085 10.436 3.36415
207 2 11.7444 13.6104 12.6417
208 2 11.7189 12.2477 12.708
209 2 2.00481 12.2424 8.32145
210 2 0.529734 12.3003 8.89681
211 2 13.6553 14.8658 14.7956
212 2 13.6011 13.2199 14.1567
213 2 14.0466 14.8263 3.92656
214 2 0.21767 14.7153 3.18025
215 2 8.73982 13.3456 11.3126
216 2 9.2168 12.2627 12.3104
217 2 12.6192 6.4341 7.68235
218 2 12.3476 5.02117 7.48946