ITEM: TIMESTEP
0
ITEM: NUMBER OF ATOMS
384
ITEM: BOX BOUNDS pp pp pp
-3.1180958401302572e-01 1.5311809584013066e+01
-3.1180958401302572e-01 1.5311809584013066e+01
-3.1180958401302572e-01 1.5311809584013066e+01
ITEM: ATOMS id type x y z
1 1 4.57679 5.50123 13.6944
2 1 14.8875 3.66367 14.1079
3 1 8.20115 10.8513 3.91518
4 1 1.55859 4.11103 4.68534
5 1 14.0046 11.0534 10.4291
6 1 10.1562 -0.0244194 -0.0179537
7 1 13.1461 9.78511 5.92123
8 1 3.48566 13.6848 7.87681
9 1 3.32305 6.30373 3.20589
10 1 5.30735 8.37688 2.36991
11 1 13.7801 6.32188 1.70807
12 1 0.692367 10.1945 14.1186
13 1 15.0627 5.43363 4.6639
14 1 9.98456 5.97612 7.92121
15 1 12.4056 7.19481 3.96576
16 1 9.83562 2.64919 6.79506
17 1 4.60459 4.17249 11.4106
18 1 7.55062 10.3381 11.1669
19 1 8.27543 1.89543 14.4455
20 1 5.83253 14.0038 0.549654
21 1 -0.277952 13.5963 10.2649
22 1 12.6457 2.09652 6.28487
23 1 10.7129 7.40871 14.2399
24 1 2.2119 7.88472 6.40809
25 1 10.4542 9.69036 5.97773
26 1 -0.282536 8.22967 4.81222
27 1 1.6652 11.2607 4.20606
28 1 6.17365 -0.094545 10.725
29 1 12.1932 8.4542 0.381712
30 1 2.29814 6.67565 12.652
31 1 3.74006 5.65533 5.77839
32 1 7.64075 12.3667 7.75101
33 1 2.57949 3.81144 2.08856
34 1 3.31976 13.3432 0.0677147
35 1 -0.0967938 5.37115 7.46928
36 1 11.1426 14.5448 7.59235
37 1 1.26174 14.8074 2.57217
38 1 6.41618 0.335516 13.3898
39 1 0.207637 9.92258 2.18818
40 1 12.6731 13.1901 12.8323
41 1 1.29363 11.9761 7.9846
42 1 13.2286 14.8362 0.439531
43 1 -0.123887 15.1905 5.01064
44 1 8.80795 12.7708 12.0788
45 1 12.4172 6.75949 6.79319
46 1 9.49869 10.6014 8.40823
47 1 10.544 10.9934 13.3575
48 1 8.99001 12.8372 5.44675
49 1 4.04829 1.51716 14.6149
50 1 6.69928 13.1999 13.7041
51 1 4.43379 6.10378 9.26553
52 1 11.4216 -0.0969869 13.0672
53 1 8.10878 14.4288 3.40524
54 1 4.3962 2.37166 3.28729
55 1 12.1316 11.4523 8.45349
56 1 8.7458 10.8517 -0.213292
57 1 1.53862 1.7361 8.48855
58 1 8.69585 5.89847 11.616
59 1 1.22107 9.19196 8.49846
60 1 10.635 10.5731 3.14594
61 1 11.4957 4.51089 15.2148
62 1 10.9209 6.7156 10.446
63 1 4.94638 10.4223 10.3546
64 1 7.94749 8.55464 1.09697
65 1 14.5919 7.80968 8.4877
66 1 5.26248 14.7619 3.62401
67 1 5.62202 2.26942 6.97039
68 1 1.29568 -0.0251437 10.348
69 1 11.6689 12.7598 1.5126
70 1 8.10674 4.34492 9.29769
71 1 15.2574 12.5827 5.71394
72 1 5.13758 11.4238 7.95676
73 1 0.807368 7.59384 14.5622
74 1 1.07308 4.35508 11.6836
75 1 -0.103901 0.899318 12.6958
76 1 12.4336 12.7126 5.99741
77 1 6.5124 0.898083 1.44852
78 1 5.22926 7.74021 7.34722
79 1 4.69818 3.85809 0.25821
80 1 14.6318 1.53081 0.260033
81 1 8.7843 1.26425 2.88569
82 1 10.1715 2.86217 10.2074
83 1 1.97586 4.56417 8.94346
84 1 12.6683 15.2799 4.82665
85 1 10.1623 4.44247 4.67024
86 1 8.26116 6.29332 15.2182
87 1 2.75694 2.33071 12.3211
88 1 10.1168 15.0402 10.6766
89 1 0.0214213 11.8389 0.424274
90 1 9.92368 3.73613 12.9889
91 1 7.93039 3.8304 3.09944
92 1 3.45334 12.7245 2.72154
93 1 13.7442 3.34545 8.32257
94 1 1.06378 7.50528 1.70711
95 1 13.5608 9.51663 12.896
96 1 6.16563 2.34739 9.6158
97 1 6.00658 4.12469 4.96415
98 1 13.0409 2.11594 12.6389
99 1 9.44842 7.22402 5.61094
100 1 3.08802 8.31472 10.412
101 1 4.27645 12.564 12.0172
102 1 0.247817 12.7339 12.6695
103 1 6.92237 8.32243 4.80264
104 1 10.2096 9.4039 11.0142
105 1 8.10819 14.6608 9.11245
106 1 0.724807 14.5893 14.8093
107 1 7.38606 3.87893 0.612739
108 1 13.59 6.17467 11.3541
109 1 6.57455 9.82429 14.0409
110 1 6.72525 7.05567 13.1783
111 1 3.66994 10.3273 5.96103
112 1 1.66543 1.60839 5.77048
113 1 9.05834 13.0173 1.11863
114 1 4.11235 0.213829 6.02437
115 1 10.3679 8.11545 2.36753
116 1 3.8208 14.5044 10.4834
117 1 6.27696 11.8524 2.07137
118 1 3.1417 11.1769 14.1451
119 1 12.971 3.21476 1.56998
120 1 12.4061 13.5738 10.1924
121 1 14.0948 6.56232 13.8874
122 1 11.4172 0.689063 2.37021
123 1 1.65778 1.52802 1.12949
124 1 7.74882 0.714644 6.86752
125 1 13.0368 10.8806 0.0461404
126 1 14.1536 3.59273 10.8941
127 1 12.9937 3.74289 4.44237
128 1 4.93288 10.2326 0.481908
129 2 4.52916 4.87676 12.9369
130 2 4.69703 5.06241 14.547
131 2 14.6886 4.58995 14.3163
132 2 0.0945933 3.63697 13.6264
133 2 7.74221 10.0755 4.24889
134 2 8.99342 10.7228 3.34745
135 2 0.788771 4.72927 4.53377
136 2 1.81069 3.95163 3.77685
137 2 14.4008 11.9252 10.4575
138 2 13.9069 10.7269 11.3647
139 2 10.6725 0.201823 0.765773
140 2 9.47367 0.652849 -0.0632908
141 2 13.5922 9.97565 6.76473
142 2 13.2152 10.5455 5.32572
143 2 3.67781 14.0964 8.7488
144 2 3.53939 14.3835 7.27865
145 2 3.09567 5.45978 2.78243
146 2 3.60518 6.19337 4.09913
147 2 5.08995 9.05489 1.76222
148 2 4.54185 7.79795 2.5309
149 2 13.4381 6.67871 2.59019
150 2 14.7355 6.25337 1.79471
151 2 0.77524 9.18308 14.2443
152 2 0.388115 10.6288 14.9234
153 2 14.1894 4.91997 4.56536
154 2 14.9228 6.4107 4.60147
155 2 10.8762 5.93786 7.61697
156 2 9.58879 6.53361 7.20672
157 2 12.1014 7.06547 4.8105
158 2 11.5829 7.27566 3.48345
159 2 9.70669 3.06202 7.62541
160 2 9.96186 3.35305 6.0781
161 2 3.89127 3.51534 11.556
162 2 5.31618 3.63484 11.0911
163 2 8.36256 9.80951 10.99
164 2 7.91946 11.2623 11.3115
165 2 7.80256 2.56448 14.9346
166 2 7.58248 1.21916 14.1315
167 2 6.10462 13.5421 -0.242407
168 2 4.85977 13.825 0.528199
169 2 14.4101 13.8153 10.1623
170 2 -0.0704958 13.4422 11.1966
171 2 11.7088 2.1063 6.54679
172 2 12.6961 1.18401 5.89058
173 2 10.9921 7.5299 13.3514
174 2 11.2636 8.01166 14.7268
175 2 1.57728 7.89927 5.7134
176 2 1.87051 8.36741 7.16573
177 2 11.4302 9.71213 6.20698
178 2 10.3486 10.1292 5.1128
179 2 14.4149 8.445 5.04536
180 2 0.00164071 8.8165 4.03796
181 2 1.02838 11.8189 4.67407
182 2 2.36173 10.8675 4.79517
183 2 6.32838 0.734699 10.265
184 2 5.21972 -0.301306 10.6492
185 2 12.568 9.37229 0.310345
186 2 12.8634 7.95827 0.824663
187 2 2.56428 7.41349 12.0109
188 2 3.14156 6.4193 13.0935
189 2 3.16723 6.41343 5.9805
190 2 3.10221 4.98312 5.63197
191 2 7.73547 13.1577 8.33842
192 2 8.06104 12.6116 6.87934
193 2 1.75422 3.38105 1.7562
194 2 3.25148 3.1727 2.47226
195 2 3.15037 12.6412 14.9757
196 2 3.16776 12.9566 0.983888
197 2 0.0720948 5.37286 6.52711
198 2 -0.245356 6.34024 7.61737
199 2 11.6512 14.8569 8.35832
200 2 11.802 13.9131 7.23812
201 2 2.07792 14.3411 2.56175
202 2 1.50629 0.044002 2.08403
203 2 6.3968 14.9261 13.4491
204 2 6.20534 0.425411 12.4267
205 2 0.660795 9.1318 1.85703
206 2 0.694078 10.391 2.87312
207 2 12.3708 14.0972 13.0916
208 2 12.1841 12.5232 13.366
209 2 2.09163 12.5603 7.87369
210 2 0.901668 12.2269 8.80367
211 2 13.6981 0.109016 0.335681
212 2 13.4443 14.3386 15.279
213 2 14.5376 15.2076 4.93591
214 2 0.228484 14.9795 4.13145
215 2 9.24837 13.4527 11.622
216 2 9.52013 12.2417 12.5392
217 2 12.875 7.30125 7.44426
218 2 13.1287 6.09272 6.70831
219 2 8.70364 11.2231 8.31889
220 2 9.67729 10.2938 7.51515
221 2 10.4955 10.2933 12.7118
222 2 10.0325 10.7711 14.1408
223 2 9.87115 13.0955 5.5737
224 2 8.95145 12.0108 4.93614
225 2 4.74251 0.928236 14.2575
226 2 3.48888 1.81195 13.8977
227 2 7.56401 13.1017 13.1985
228 2 6.02622 12.6782 13.2435
229 2 3.65548 5.64787 8.88705
230 2 4.53028 5.65688 10.1121
231 2 10.7483 -0.0654962 13.7661
232 2 11.7812 0.808853 13.0779
233 2 8.36482 -0.291862 3.46612
234 2 8.34757 14.0066 4.25098
235 2 5.1094 1.81781 2.95108
236 2 4.6411 2.96006 4.03817
237 2 12.5339 11.0417 9.22128
238 2 11.1841 11.2095 8.49369
239 2 8.60742 10.312 0.576946
240 2 8.69537 11.7883 0.0583599
241 2 1.42282 1.68337 7.50469
242 2 1.60998 2.65673 8.73322
243 2 8.87953 5.11923 12.1645
244 2 8.03029 6.40716 12.1505
245 2 1.95332 8.95172 9.16853
246 2 1.28006 10.1574 8.3047
247 2 11.2632 11.2403 2.79611
248 2 10.7957 9.70539 2.72449
249 2 11.5653 5.40273 -0.288322
250 2 11.1896 4.32648 14.2564
251 2 10.4204 6.65681 9.62663
252 2 10.2607 6.46258 11.0571
253 2 5.87632 10.1769 10.5904
254 2 4.94364 10.8143 9.46912
255 2 7.91802 7.6928 0.604333
256 2 7.17835 8.74025 1.63464
257 2 14.2008 7.92642 9.35992
258 2 -0.267797 8.44072 8.55252
259 2 6.16366 14.3915 3.8125
260 2 4.75946 14.0077 3.26281
261 2 6.35085 1.60272 6.90857
262 2 4.84301 1.75402 6.76165
263 2 1.34137 0.662419 9.62968
264 2 0.817817 14.7755 10.0578
265 2 10.8342 13.0339 1.10914
266 2 12.2496 13.5788 1.43103
267 2 7.99168 4.93257 10.0429
268 2 8.59208 4.87508 8.55834
269 2 -0.0863874 13.5026 5.64494
270 2 0.00602987 12.1735 6.56287
271 2 6.0476 11.6847 7.84187
272 2 4.65027 12.2574 7.8746
273 2 -0.10786 7.21382 14.4417
274 2 1.40859 7.20909 13.8607
275 2 1.10879 5.19843 12.1297
276 2 0.142322 4.18446 11.4107
277 2 0.192301 0.569522 11.8253
278 2 0.262058 0.216297 13.3227
279 2 13.325 12.966 5.76917
280 2 12.474 12.1815 6.79075
281 2 6.96454 1.33987 0.72514
282 2 6.22808 -0.0168944 1.14781
283 2 5.28424 6.95392 7.95734
284 2 5.69738 8.44349 7.79401
285 2 4.59695 2.96295 -0.156096
286 2 4.05776 3.8329 1.0606
287 2 14.2623 2.20361 0.861912
288 2 14.7961 2.02476 15.1013
289 2 7.90736 0.984376 2.41964
290 2 8.42535 2.08554 3.23522
291 2 9.33834 3.30929 9.83257
292 2 10.1754 1.88055 10.1119
293 2 1.75381 4.52695 9.90946
294 2 1.11552 4.78978 8.54253
295 2 12.2645 0.0873025 4.07993
296 2 12.0334 14.6435 5.15054
297 2 9.97133 5.30379 5.02216
298 2 9.51596 4.30903 3.95105
299 2 9.11176 6.41377 14.7882
300 2 7.57568 6.54 14.599
301 2 2.07189 2.92609 11.9449
302 2 2.69894 1.52435 11.845
303 2 10.8501 14.3815 10.4642
304 2 10.5118 -0.206863 11.478
305 2 0.274248 12.7719 0.61942
306 2 0.108425 11.2293 1.22179
307 2 9.70727 2.84376 13.3266
308 2 10.3129 3.49932 12.1129
309 2 7.16744 3.93944 3.6373
310 2 7.68964 3.77425 2.12389
311 2 2.7812 12.2345 3.34142
312 2 4.17512 12.108 2.65722
313 2 13.4252 2.63657 7.76521
314 2 14.4885 3.85196 7.85505
315 2 1.16553 7.50623 0.684607
316 2 1.80702 6.9489 2.01705
317 2 14.4305 9.58843 13.243
318 2 13.0187 10.0336 13.4694
319 2 5.70123 2.57075 8.68482
320 2 6.80813 3.05178 9.52933
321 2 5.35787 4.80808 5.12533
322 2 5.96938 3.53575 5.71789
323 2 13.0854 2.74416 13.3668
324 2 13.871 1.59988 12.7008
325 2 8.54415 7.16809 5.28465
326 2 9.76316 8.11779 5.62097
327 2 3.5805 7.58031 10.0651
328 2 3.76188 9.05652 10.3377
329 2 4.55808 11.8882 11.3243
330 2 3.56374 12.075 12.5347
331 2 0.334551 11.7965 12.6005
332 2 0.24849 12.8839 13.5924
333 2 6.35726 8.22802 5.65351
334 2 6.38531 8.12785 4.02112
335 2 10.214 9.5859 10.0692
336 2 10.6644 8.57403 11.1276
337 2 8.95214 14.8857 9.64428
338 2 7.3584 14.7538 9.70982
339 2 0.591563 15.0693 0.0182509
340 2 1.70203 14.3696 14.7724
341 2 6.4741 3.89198 0.306924
342 2 7.8908 4.74294 0.474307
343 2 13.7745 5.25403 11.174
344 2 12.6407 6.3597 11.1641
345 2 6.61181 10.3071 13.1711
346 2 7.38294 10.2018 14.4287
347 2 5.92965 6.53312 13.3142
348 2 6.65131 8.00804 13.4902
349 2 4.1508 10.9057 6.58172
350 2 3.72612 9.43762 6.27968
351 2 0.960879 1.05271 5.33877
352 2 1.48012 2.49213 5.40543
353 2 8.71011 13.4532 1.93204
354 2 8.99593 13.78 0.520382
355 2 3.28533 0.709593 5.89467
356 2 4.52263 -0.105961 5.1872
357 2 10.8957 8.12501 1.5533
358 2 9.392 8.09909 2.00114
359 2 2.85608 14.8006 10.6062
360 2 3.90293 13.7417 11.0449
361 2 6.48734 12.6937 1.54518
362 2 7.04029 11.6822 2.67807
363 2 2.24681 10.7375 14.3261
364 2 3.668 10.6767 14.8241
365 2 12.3482 3.69431 0.972113
366 2 13.2921 3.83378 2.19605
367 2 12.5073 12.8061 9.60602
368 2 12.5354 13.311 11.1419
369 2 13.9506 6.55755 12.8999
370 2 13.4462 7.1125 14.3857
371 2 11.8334 1.45816 2.05064
372 2 10.4376 0.894116 2.52875
373 2 0.844146 1.54638 0.605455
374 2 2.39804 1.38307 0.478242
375 2 7.77884 0.12269 7.66547
376 2 8.60235 1.23456 6.91956
377 2 12.4122 11.5105 0.551261
378 2 13.9301 11.2794 0.187093
379 2 13.8259 3.47873 9.96028
380 2 13.5184 3.1733 11.5056
381 2 12.9666 3.11167 5.2382
382 2 12.0906 4.05916 4.29522
383 2 5.48443 10.7696 1.07083
384 2 5.47524 10.05 -0.286949
ITEM: TIMESTEP
200
ITEM: NUMBER OF ATOMS
384
ITEM: BOX BOUNDS pp pp pp
-2.1868351273538700e-01 1.5218683512735430e+01
-2.1868351273538700e-01 1.5218683512735430e+01
-2.1868351273538700e-01 1.5218683512735430e+01
ITEM: ATOMS id type x y z
1 1 4.49291 5.64072 13.1157
2 1 14.548 3.90323 13.9248
3 1 7.61204 10.5993 3.77658
4 1 1.72737 3.72944 4.61271
5 1 13.6495 10.2054 10.2801
6 1 9.96297 0.228064 0.00383995
7 1 13.3282 9.62237 6.02267
8 1 3.32628 13.5515 7.68357
9 1 3.19717 6.45357 2.91142
10 1 5.5549 7.82932 2.5241
11 1 13.7763 6.56358 1.85918
12 1 0.591931 10.0672 13.8291
13 1 14.9098 5.38147 4.91866
14 1 9.85559 5.9475 7.87451
15 1 12.2516 6.96857 4.01727
16 1 9.90041 2.72754 6.75635
17 1 4.71818 3.85097 11.1829
18 1 7.31751 10.3509 11.3347
19 1 8.31487 1.97674 14.4498
20 1 5.83314 13.9324 0.593216
21 1 -0.148981 13.3136 10.0337
22 1 12.5023 1.83973 6.29976
23 1 10.6373 7.10008 14.1992
24 1 1.95733 7.8406 6.31174
25 1 10.3878 9.19926 5.78944
26 1 15.1375 8.18589 4.72912
27 1 1.75205 11.4259 4.41598
28 1 5.96783 0.29988 10.5301
29 1 12.2358 7.99108 0.361231
30 1 2.29109 6.55053 12.2678
31 1 3.55437 5.72356 5.36175
32 1 7.70265 11.9388 7.86469
33 1 3.13043 3.58497 2.25024
34 1 3.03252 13.2959 0.194118
35 1 -0.0176207 5.30933 7.61006
36 1 10.7054 14.5591 7.38388
37 1 1.25489 14.5302 2.32948
38 1 6.06127 0.428715 13.3011
39 1 0.395527 9.92565 2.71413
40 1 12.2566 13.1209 12.5196
41 1 0.981816 12.2331 8.05533
42 1 13.4649 14.241 0.217374
43 1 -0.0564087 14.9971 4.50597
44 1 8.50603 12.7084 11.7908
45 1 12.4982 6.29119 6.79145
46 1 9.72337 10.2817 8.27021
47 1 10.4231 11.0201 12.8497
48 1 8.83747 12.3133 5.37669
49 1 3.98661 1.61901 14.2782
50 1 6.51049 13.2599 13.4035
51 1 4.13468 5.96218 9.29082
52 1 11.2501 0.0249123 13.1338
53 1 7.54297 14.2187 3.51905
54 1 4.70562 2.08783 3.57423
55 1 12.2621 11.1998 8.38456
56 1 8.83571 10.5364 -0.186429
57 1 1.65448 1.79832 8.39706
58 1 8.51099 5.54757 11.5711
59 1 1.17413 9.16829 8.52023
60 1 10.4515 10.5851 3.36645
61 1 11.5361 4.34693 14.8698
62 1 10.48 6.92705 10.5022
63 1 4.83712 10.1917 10.105
64 1 7.97125 8.06877 1.30798
65 1 14.3033 7.52073 8.65002
66 1 4.92193 14.8294 3.735
67 1 5.79606 1.92845 6.82407
68 1 1.34855 0.445772 10.3759
69 1 11.4384 12.419 1.74628
70 1 8.21422 4.26866 9.37684
71 1 15.1309 12.5033 5.69304
72 1 4.93339 11.3556 7.54442
73 1 0.965059 7.50646 14.368
74 1 1.07608 4.26958 11.7442
75 1 -0.073854 0.59709 12.7535
76 1 12.456 12.5232 6.03889
77 1 6.20932 1.05756 1.47937
78 1 5.54753 8.05396 6.97413
79 1 4.56774 3.97293 -0.214833
80 1 14.4523 1.81806 0.352345
81 1 8.54536 1.3134 2.62526
82 1 10.119 2.55735 10.2446
83 1 1.88008 4.402 8.86222
84 1 12.6672 15.0771 4.25744
85 1 10.212 4.77719 4.89478
86 1 8.31394 6.34961 14.9488
87 1 2.8006 2.22017 12.1085
88 1 9.92733 14.7282 10.733
89 1 -0.217426 11.2601 0.750501
90 1 9.69278 3.51461 12.7868
91 1 7.91758 3.89627 3.55666
92 1 3.27281 12.6833 2.68103
93 1 13.4346 3.54557 8.20728
94 1 0.744242 7.51542 1.67802
95 1 13.4004 10.0312 12.7153
96 1 6.15539 2.75164 9.31828
97 1 5.7732 3.90521 5.18288
98 1 13.1179 1.84166 12.6737
99 1 8.93457 6.95597 5.43594
100 1 3.13181 8.20462 10.325
101 1 4.41811 12.2056 12.0335
102 1 0.625282 12.6987 12.3918
103 1 6.77734 8.46359 4.72214
104 1 9.75612 9.51663 10.792
105 1 7.92081 14.4582 8.94336
106 1 0.788976 14.3457 14.5336
107 1 7.33392 3.96541 0.305202
108 1 13.357 6.6397 10.8667
109 1 6.63995 9.52156 13.6148
110 1 6.7032 6.90722 13.1296
111 1 3.56152 9.80909 5.60332
112 1 1.54907 1.21674 5.67406
113 1 9.12842 13.228 1.02152
114 1 3.9412 0.206128 6.07406
115 1 10.4566 8.13343 2.33068
116 1 3.72501 14.2173 10.301
117 1 5.65967 11.6122 2.19519
118 1 3.20814 11.0761 14.2176
119 1 12.3294 2.92794 1.54507
120 1 12.5231 13.6534 10.0776
121 1 13.9553 6.51678 13.6063
122 1 11.1722 0.869858 2.42531
123 1 1.81022 1.42732 1.03986
124 1 8.06747 0.704039 6.67607
125 1 12.6964 10.6529 -0.144534
126 1 14.0095 3.81903 10.7744
127 1 12.5863 4.16422 4.05531
128 1 4.97303 9.70591 0.444651
129 2 4.56116 4.95067 12.4991
130 2 4.22343 5.22189 14.0125
131 2 14.264 4.79857 13.9216
132 2 -0.0988057 4.05485 13.3765
133 2 7.1413 9.83777 4.26968
134 2 8.6849 10.4472 3.48087
135 2 0.963443 4.41537 4.55841
136 2 2.24091 3.79915 3.74154
137 2 14.3986 10.8679 10.2494
138 2 13.4883 10.1476 11.3297
139 2 10.3994 0.551786 0.974592
140 2 9.21819 0.932093 15.0853
141 2 13.3624 9.63759 7.1314
142 2 13.3712 10.6041 5.91577
143 2 3.63798 13.9329 8.5863
144 2 3.6415 14.2665 6.9589
145 2 2.81332 5.76659 2.32556
146 2 3.2318 6.309 3.82468
147 2 5.2382 8.71403 1.93457
148 2 4.8318 7.31305 2.58029
149 2 13.2157 6.56453 2.65261
150 2 14.6901 6.84364 1.95371
151 2 0.841947 9.07816 13.7307
152 2 0.415098 10.3404 14.7621
153 2 13.9871 4.98669 4.56826
154 2 14.9559 6.35489 4.57959
155 2 10.7486 6.0438 7.50577
156 2 9.49985 6.75244 7.38185
157 2 12.426 6.88832 5.07089
158 2 11.4606 7.72161 3.85772
159 2 9.56359 3.19061 7.66236
160 2 9.95429 3.59361 6.26686
161 2 4.27625 3.09924 11.1179
162 2 5.47131 3.71832 10.5224
163 2 8.19131 9.88434 11.336
164 2 7.4332 11.2977 11.2545
165 2 7.88705 2.64773 15.0546
166 2 7.61814 1.66745 13.9847
167 2 6.25163 13.7219 15.1142
168 2 4.81352 14.0623 0.383799
169 2 14.4067 13.5379 9.94553
170 2 0.170603 13.1463 10.8413
171 2 11.5053 1.87572 6.52037
172 2 12.561 0.963254 5.65958
173 2 10.7784 7.32606 13.2447
174 2 11.2089 7.75217 14.78
175 2 1.25289 7.8117 5.55755
176 2 1.67809 8.42776 7.06711
177 2 11.4708 8.98898 5.83191
178 2 10.5361 9.80251 4.94111
179 2 14.5397 8.81342 5.31438
180 2 0.0368876 8.7693 3.90379
181 2 1.06455 11.9201 4.92064
182 2 2.32504 10.7781 4.82026
183 2 6.00912 1.10159 9.99925
184 2 5.08686 0.0669606 10.4055
185 2 12.465 8.90563 0.140398
186 2 13.2705 7.35796 0.8293
187 2 2.55017 7.31218 11.4937
188 2 3.07969 6.20555 12.5869
189 2 3.10758 6.53097 5.72702
190 2 2.9298 4.99277 5.35449
191 2 7.78505 12.6989 8.47089
192 2 8.06966 12.1516 7.03434
193 2 2.60187 2.83369 1.62176
194 2 3.60008 2.80005 2.72073
195 2 2.97371 12.509 15.0709
196 2 2.92953 13.019 1.12475
197 2 -0.114438 5.56545 6.6058
198 2 14.9634 6.31069 7.89112
199 2 11.3752 -0.177198 7.39216
200 2 11.0912 13.753 7.05531
201 2 2.25957 14.0774 2.49474
202 2 1.774 -0.162844 1.67777
203 2 6.10085 14.7557 13.4356
204 2 6.07888 0.230769 12.3129
205 2 0.761129 9.18273 2.28448
206 2 0.844004 10.4502 3.40907
207 2 11.648 13.8708 12.6671
208 2 11.6526 12.1448 12.4935
209 2 1.78869 12.7469 7.77339
210 2 0.26967 12.871 8.9137
211 2 13.3902 15.1573 0.342841
212 2 13.5999 14.2976 14.7002
213 2 14.5128 -0.195181 4.35737
214 2 0.353516 14.8182 3.55652
215 2 8.9892 13.3662 11.0826
216 2 9.30049 12.2716 12.1348
217 2 13.0506 6.64464 7.51008
218 2 12.864 5.4371 6.53401
219 2 8.77798 10.8333 8.20856
220 2 9.85514 9.8699 7.35426
221 2 10.2011 10.3377 12.22
222 2 9.96783 10.6485 13.5593
223 2 9.84239 12.2424 5.22962
224 2 8.50714 11.7223 4.78541
225 2 4.59277 1.02818 14.0081
226 2 3.45594 1.80058 13.4423
227 2 7.48678 12.973 12.9924
228 2 5.69889 13.0293 12.8058
229 2 3.46716 5.18993 9.06293
230 2 4.69082 5.52774 9.85607
231 2 10.9259 0.294926 14.0028
232 2 11.9627 0.703662 12.963
233 2 7.99472 14.9761 3.45887
234 2 8.21701 13.8413 4.19982
235 2 5.22416 1.63265 2.74899
236 2 5.43537 2.73463 3.92529
237 2 12.671 10.9129 9.27364
238 2 11.3776 10.8572 8.17436
239 2 8.40118 9.91076 0.431012
240 2 8.88253 11.4959 0.243692
241 2 1.30126 1.57526 7.45875
242 2 1.77344 2.75138 8.48541
243 2 8.77777 4.74668 12.1674
244 2 7.78565 6.05891 12.0545
245 2 1.59346 8.80827 9.39103
246 2 1.37298 10.1453 8.46654
247 2 11.0135 11.2221 2.85665
248 2 10.6472 9.7576 2.92769
249 2 11.2418 5.27396 15.0179
250 2 10.9689 3.95583 14.0519
251 2 10.5208 6.43679 9.5842
252 2 9.58163 6.52489 10.8586
253 2 5.85341 10.0777 10.0296
254 2 4.7647 10.6981 9.20459
255 2 8.07333 7.37321 0.492928
256 2 7.03386 8.04807 2.00609
257 2 13.9411 7.35467 9.71945
258 2 15.182 8.15978 8.95103
259 2 5.79728 14.3883 3.81881
260 2 4.30042 13.949 3.51954
261 2 6.56641 1.29754 6.53937
262 2 4.96632 1.39289 6.74535
263 2 1.32012 1.01749 9.65669
264 2 0.683263 15.1041 10.2966
265 2 10.6115 12.7408 1.38954
266 2 12.1579 12.9585 1.75638
267 2 8.24076 4.76414 10.3674
268 2 8.69979 4.90268 8.76242
269 2 -0.181636 13.3971 5.28722
270 2 0.192087 12.4859 6.46309
271 2 5.86254 11.5518 7.36312
272 2 4.27718 12.0447 7.51547
273 2 -0.0777019 7.29852 14.1522
274 2 1.50146 7.15545 13.5731
275 2 1.56106 5.14385 11.8945
276 2 0.301644 4.18983 11.1394
277 2 0.428671 0.581761 11.8346
278 2 0.531693 0.496158 13.3124
279 2 13.454 12.8327 5.93456
280 2 12.2413 11.9078 6.89311
281 2 6.35033 1.54077 0.620297
282 2 6.2783 -0.00290473 1.31983
283 2 5.13194 7.34681 7.13538
284 2 4.92463 8.74919 7.21568
285 2 4.39021 3.10501 14.68
286 2 4.12856 3.98934 0.548119
287 2 13.894 2.22443 0.84419
288 2 14.7494 2.53034 14.9854
289 2 7.85855 1.16305 2.02763
290 2 8.42557 2.27821 3.0573
291 2 9.78376 3.06478 9.49222
292 2 10.346 1.52169 10.0094
293 2 1.4629 4.63033 9.71509
294 2 1.05609 4.83077 8.3412
295 2 12.2658 -0.108296 3.49356
296 2 12.2324 14.3699 4.71313
297 2 9.89968 5.7366 4.8018
298 2 9.62764 4.31185 4.3621
299 2 9.17311 6.69752 14.5738
300 2 7.69614 6.39042 14.3595
301 2 2.05072 3.00834 12.063
302 2 2.47649 1.65961 11.5663
303 2 10.7156 14.6618 10.3225
304 2 10.3284 15.004 11.6855
305 2 -0.056736 12.1682 0.998248
306 2 0.0179662 10.73 1.58398
307 2 9.20201 2.67474 13.2525
308 2 10.2285 3.30591 11.9741
309 2 7.08001 3.94285 4.21014
310 2 7.66132 4.1907 2.734
311 2 2.63593 12.1659 3.42375
312 2 4.13864 12.175 2.76189
313 2 13.3007 2.85919 7.72261
314 2 14.2948 4.14877 8.07775
315 2 0.84504 7.54761 0.717005
316 2 1.56643 7.11594 2.39742
317 2 14.268 10.1826 12.8551
318 2 12.9209 10.4761 13.4787
319 2 5.99069 2.53381 8.27344
320 2 7.1166 3.36008 9.21087
321 2 5.00882 4.68078 5.29519
322 2 5.80808 3.35395 5.9251
323 2 13.1036 2.47471 13.3655
324 2 14.016 1.22353 12.7299
325 2 8.14934 7.2041 4.9532
326 2 9.52101 8.0089 5.49014
327 2 3.52846 7.37732 10.1637
328 2 3.77467 8.91174 10.1266
329 2 4.6368 11.6443 11.1338
330 2 4.01951 11.8465 12.7316
331 2 0.252535 11.8194 12.9935
332 2 0.502854 13.4445 13.0636
333 2 6.16908 8.49688 5.30447
334 2 6.30782 8.20339 3.88388
335 2 9.67722 9.99231 9.81758
336 2 10.2236 8.5347 10.7777
337 2 8.71241 14.8036 9.54044
338 2 7.14707 14.6395 9.56678
339 2 0.216207 14.839 15.1152
340 2 1.71475 13.9457 14.9464
341 2 6.44146 4.11715 0.249027
342 2 7.80236 4.86729 0.296918
343 2 13.5573 5.78426 10.7147
344 2 12.293 6.53954 10.6424
345 2 6.79422 9.92851 12.799
346 2 7.40421 9.81564 14.2861
347 2 5.71862 6.4535 13.1202
348 2 6.61841 8.01387 13.2625
349 2 3.67468 10.3393 6.32394
350 2 3.03977 9.15826 6.04135
351 2 0.88636 0.710554 5.22946
352 2 1.38794 2.11017 5.2772
353 2 8.69437 13.4255 1.81268
354 2 9.39667 14.023 0.426833
355 2 2.89138 0.54556 6.0683
356 2 4.24202 -0.0916992 5.11398
357 2 11.1002 8.02258 1.60073
358 2 9.63773 7.88996 1.84252
359 2 2.95353 14.7558 10.4208
360 2 3.85891 13.5817 11.0458
361 2 5.9014 12.3418 1.72488
362 2 6.41971 11.1993 2.70166
363 2 2.18625 10.6236 14.1303
364 2 3.60407 10.5318 14.7918
365 2 11.9919 3.24034 0.781749
366 2 12.5529 3.52257 2.32381
367 2 12.5302 12.8662 9.61522
368 2 12.527 13.4105 11.0853
369 2 13.6974 6.74099 12.7553
370 2 12.9942 6.57373 14.1275
371 2 11.4721 1.60108 2.08722
372 2 10.2941 1.10301 2.83135
373 2 0.806401 1.52579 0.885196
374 2 1.99015 1.2422 0.207843
375 2 8.05878 0.0981039 7.42672
376 2 8.79338 1.33638 6.81031
377 2 12.271 11.2637 0.513711
378 2 13.788 10.6853 0.0541353
379 2 13.7092 3.58381 9.88075
380 2 13.7376 2.99063 11.2865
381 2 12.6244 3.3616 4.55649
382 2 11.6024 4.47383 4.24179
383 2 5.52119 10.3515 0.829608
384 2 5.35922 9.44591 15.1159
ITEM: TIMESTEP
400
ITEM: NUMBER OF ATOMS
384
ITEM: BOX BOUNDS pp pp pp
-1.3021218416963443e-01 1.5130212184169675e+01
-1.3021218416963443e-01 1.5130212184169675e+01
-1.3021218416963443e-01 1.5130212184169675e+01
ITEM: ATOMS id type x y z
1 1 4.56895 5.45041 12.6317
2 1 14.614 3.83783 14.0913
3 1 7.31263 10.7828 3.45364
4 1 1.73146 3.56261 4.44937
5 1 13.5789 9.57466 9.92192
6 1 9.44226 -0.0018981 14.9885
7 1 13.3214 9.81284 6.41979
8 1 3.43318 12.9706 7.93072
9 1 3.42238 6.04102 2.4431
10 1 5.55807 7.54133 2.09643
11 1 13.8427 6.67634 2.05458
12 1 0.539072 10.1208 13.944
13 1 -0.126793 5.23063 4.89249
14 1 9.62723 6.44561 8.05476
15 1 12.2446 6.80255 4.4489
16 1 10.2233 2.58195 6.79052
17 1 4.62424 3.76545 10.6494
18 1 6.83408 10.4742 11.149
19 1 7.95027 2.0465 14.4439
20 1 5.77593 13.4834 0.53365
21 1 15.06 13.3939 10.0868
22 1 12.2921 1.94505 5.66321
23 1 10.797 6.42298 13.4418
24 1 2.02268 7.99468 6.40295
25 1 10.7333 9.05676 5.70305
26 1 15.0648 7.95479 4.76677
27 1 1.62606 11.2362 4.5677
28 1 5.92415 0.522847 10.4279
29 1 12.2519 7.82113 0.0543794
30 1 2.03006 6.4169 12.0811
31 1 3.34177 5.66651 5.24546
32 1 7.50955 11.889 7.73969
33 1 3.18968 3.4484 1.83623
34 1 3.26821 12.9235 -0.0331004
35 1 -0.0523724 4.96843 7.4817
36 1 10.5587 14.7146 7.24154
37 1 1.05393 14.2118 1.76574
38 1 5.8685 0.845364 13.0587
39 1 0.360375 9.66734 2.91706
40 1 12.2605 12.9943 12.3333
41 1 1.15427 11.8804 8.18753
42 1 13.4924 13.8732 15.0537
43 1 15.0127 14.8511 4.19046
44 1 8.33363 12.7384 11.9277
45 1 12.0073 5.90153 7.15596
46 1 9.70889 10.2497 7.99327
47 1 10.0706 11.0103 12.8501
48 1 8.59706 12.3822 5.30962
49 1 3.64401 1.71582 13.9201
50 1 6.09973 13.434 13.2142
51 1 4.16056 6.14139 8.7504
52 1 11.1627 0.146497 12.9041
53 1 7.40866 13.9751 3.51392
54 1 4.61972 2.16143 3.75638
55 1 12.1446 11.2826 8.53144
56 1 8.93141 10.2389 0.0336071
57 1 2.03576 1.44071 8.16834
58 1 8.51252 5.25635 11.6476
59 1 0.658164 9.46952 8.77467
60 1 10.0977 10.5883 3.66073
61 1 11.5775 3.84145 14.3871
62 1 10.0724 6.99065 10.4954
63 1 4.57314 10.0163 9.74862
64 1 8.17553 8.10747 1.52744
65 1 14.0224 7.2266 8.1005
66 1 4.90776 14.7098 3.76986
67 1 5.76102 1.76569 6.51986
68 1 1.44771 0.131994 10.3433
69 1 11.1967 12.5806 1.91016
70 1 8.80165 3.95233 9.23799
71 1 15.0827 12.6313 5.68016
72 1 5.04759 11.0576 7.21188
73 1 0.831788 7.57781 14.1874
74 1 0.573529 4.20177 11.5797
75 1 15.1105 0.665108 12.5844
76 1 12.3654 12.7383 5.95389
77 1 6.28331 1.06259 1.10328
78 1 5.5803 8.02289 7.49338
79 1 4.74963 3.9683 14.9902
80 1 14.4888 1.71707 0.62723
81 1 8.19846 1.23499 3.05161
82 1 10.3071 2.0949 10.549
83 1 1.99099 4.16378 8.86822
84 1 12.3555 14.8949 4.2875
85 1 9.70702 4.5657 4.90297
86 1 8.28114 6.18358 14.7847
87 1 2.62087 2.22582 11.596
88 1 10.0834 14.5638 10.657
89 1 14.7998 11.3702 0.958498
90 1 9.70924 3.20676 12.7226
91 1 7.63262 3.76672 3.46571
92 1 3.16789 12.7512 2.77437
93 1 13.0794 3.74399 7.93854
94 1 1.21794 7.70262 1.60747
95 1 13.2588 9.8437 12.6976
96 1 6.47938 2.86142 8.92318
97 1 6.05465 4.44038 5.60439
98 1 12.764 2.16099 12.5388
99 1 8.72159 7.22938 5.75797
100 1 2.90369 8.1288 10.0081
101 1 4.27781 12.1003 11.7321
102 1 0.961389 12.2402 12.1091
103 1 6.44161 8.34801 4.63147
104 1 9.23349 9.53429 10.5853
105 1 7.63319 14.3958 8.67505
106 1 1.03326 13.9913 14.1122
107 1 7.03374 3.92925 1.03625
108 1 12.5188 6.55626 11.0713
109 1 6.91247 9.48012 13.621
110 1 6.7831 6.92535 12.7895
111 1 3.81966 9.65322 5.01514
112 1 1.36423 1.08584 5.68319
113 1 8.80263 12.9932 1.23758
114 1 3.65519 15.0216 6.30866
115 1 10.7858 8.2821 2.57191
116 1 3.82106 14.1691 10.1563
117 1 5.20341 11.3513 1.79702
118 1 3.19785 10.8109 13.9992
119 1 12.1855 2.95403 1.75217
120 1 12.3913 13.4852 9.85008
121 1 13.768 6.69508 13.3279
122 1 10.7408 0.697013 2.42706
123 1 1.76703 1.56832 0.856759
124 1 8.20065 0.727998 5.95619
125 1 12.3674 10.4431 0.154191
126 1 13.3053 4.03787 10.6349
127 1 12.9439 4.00694 4.39394
128 1 4.75871 9.48431 0.17621
129 2 4.69615 4.73051 11.7578
130 2 4.43323 4.85987 13.4357
131 2 13.9915 4.55259 14.3595
132 2 15.1129 4.11198 13.3086
133 2 7.43712 9.88743 3.84473
134 2 8.15472 10.8844 2.98662
135 2 1.07864 4.12985 4.44966
136 2 2.15748 3.49251 3.60772
137 2 14.5702 9.37107 9.70985
138 2 13.3871 9.45276 10.8396
139 2 9.77728 0.37008 0.553705
140 2 8.74895 0.75355 14.8705
141 2 13.3084 10.0849 7.19874
142 2 13.5339 10.5643 5.85605
143 2 3.52886 13.4958 8.73327
144 2 3.46837 13.7119 7.19095
145 2 3.3223 5.08469 2.49536
146 2 3.29702 6.12171 3.41114
147 2 5.00043 8.2031 1.68897
148 2 4.82912 6.80359 2.20737
149 2 13.4776 6.86007 2.83697
150 2 14.8269 6.81055 2.05108
151 2 0.815379 9.16428 14.0433
152 2 0.219588 10.347 14.772
153 2 14.2087 4.68034 4.63896
154 2 15.0199 6.02404 4.39041
155 2 10.5196 6.30929 7.77379
156 2 9.08973 6.79203 7.18559
157 2 12.1866 6.58239 5.38256
158 2 11.6511 7.40233 4.10774
159 2 9.81851 2.93195 7.69726
160 2 9.87296 3.4631 6.27694
161 2 4.11683 2.99739 10.9022
162 2 5.12719 3.38976 9.86587
163 2 7.65026 9.87959 10.7205
164 2 7.09514 11.4252 11.2075
165 2 7.65061 2.65565 15.0976
166 2 7.14735 1.70578 14.041
167 2 6.21137 13.3465 14.894
168 2 4.71481 13.6619 0.164216
169 2 14.2097 13.5945 10.016
170 2 0.186944 12.8801 10.8826
171 2 11.3797 1.94398 6.05073
172 2 12.6105 1.03993 5.38745
173 2 11.1756 6.34192 12.5318
174 2 11.2621 6.81636 14.3283
175 2 1.19862 7.94997 5.85892
176 2 1.80353 8.38623 7.25623
177 2 11.7236 9.06663 5.85647
178 2 10.6944 9.59383 4.93161
179 2 14.1589 8.13616 4.89824
180 2 15.1147 8.42702 4.00585
181 2 0.988197 11.78 5.19821
182 2 2.26436 10.6005 4.85529
183 2 6.15466 1.23565 9.87076
184 2 5.18477 15.1226 10.1211
185 2 12.3959 8.86251 0.0351087
186 2 12.7669 7.43945 0.698657
187 2 2.35376 7.04932 11.56
188 2 2.91161 5.94469 12.3242
189 2 2.61075 6.30716 5.76661
190 2 2.847 4.92496 5.07327
191 2 7.45179 12.5761 8.34642
192 2 7.73478 12.2567 6.78623
193 2 2.38974 2.71096 1.35523
194 2 3.81761 2.67124 2.21043
195 2 3.27754 11.8463 14.905
196 2 3.02237 12.6379 0.881057
197 2 -0.0561852 5.14121 6.51353
198 2 14.9453 5.90394 7.75348
199 2 10.8493 14.6475 8.25884
200 2 11.1434 14.0289 6.96032
201 2 1.97537 13.7678 2.00755
202 2 1.20341 14.9672 1.28197
203 2 6.07199 -0.0221244 13.181
204 2 6.03484 0.951299 12.041
205 2 1.00154 9.03717 2.44222
206 2 1.11001 10.3694 3.32718
207 2 11.7097 13.5706 12.622
208 2 11.851 12.2743 12.6671
209 2 1.97422 12.2301 8.26609
210 2 0.580033 12.4405 8.86248
211 2 13.6056 14.8505 14.929
212 2 13.5024 13.2321 14.1082
213 2 14.0437 14.8882 3.98049
214 2 0.215705 14.6745 3.23242
215 2 8.6945 13.3383 11.2514
216 2 9.18259 12.3333 12.3793
217 2 12.7701 6.38699 7.68254