ITEM: TIMESTEP
0
ITEM: NUMBER OF ATOMS
384
ITEM: BOX BOUNDS pp pp pp
-3.1180958401302572e-01 1.5311809584013066e+01
-3.1180958401302572e-01 1.5311809584013066e+01
-3.1180958401302572e-01 1.5311809584013066e+01
ITEM: ATOMS id type x y z
1 1 4.57679 5.50123 13.6944
2 1 14.8875 3.66367 14.1079
3 1 8.20115 10.8513 3.91518
4 1 1.55859 4.11103 4.68534
5 1 14.0046 11.0534 10.4291
6 1 10.1562 -0.0244194 -0.0179537
7 1 13.1461 9.78511 5.92123
8 1 3.48566 13.6848 7.87681
9 1 3.32305 6.30373 3.20589
10 1 5.30735 8.37688 2.36991
11 1 13.7801 6.32188 1.70807
12 1 0.692367 10.1945 14.1186
13 1 15.0627 5.43363 4.6639
14 1 9.98456 5.97612 7.92121
15 1 12.4056 7.19481 3.96576
16 1 9.83562 2.64919 6.79506
17 1 4.60459 4.17249 11.4106
18 1 7.55062 10.3381 11.1669
19 1 8.27543 1.89543 14.4455
20 1 5.83253 14.0038 0.549654
21 1 -0.277952 13.5963 10.2649
22 1 12.6457 2.09652 6.28487
23 1 10.7129 7.40871 14.2399
24 1 2.2119 7.88472 6.40809
25 1 10.4542 9.69036 5.97773
26 1 -0.282536 8.22967 4.81222
27 1 1.6652 11.2607 4.20606
28 1 6.17365 -0.094545 10.725
29 1 12.1932 8.4542 0.381712
30 1 2.29814 6.67565 12.652
31 1 3.74006 5.65533 5.77839
32 1 7.64075 12.3667 7.75101
33 1 2.57949 3.81144 2.08856
34 1 3.31976 13.3432 0.0677147
35 1 -0.0967938 5.37115 7.46928
36 1 11.1426 14.5448 7.59235
37 1 1.26174 14.8074 2.57217
38 1 6.41618 0.335516 13.3898
39 1 0.207637 9.92258 2.18818
40 1 12.6731 13.1901 12.8323
41 1 1.29363 11.9761 7.9846
42 1 13.2286 14.8362 0.439531
43 1 -0.123887 15.1905 5.01064
44 1 8.80795 12.7708 12.0788
45 1 12.4172 6.75949 6.79319
46 1 9.49869 10.6014 8.40823
47 1 10.544 10.9934 13.3575
48 1 8.99001 12.8372 5.44675
49 1 4.04829 1.51716 14.6149
50 1 6.69928 13.1999 13.7041
51 1 4.43379 6.10378 9.26553
52 1 11.4216 -0.0969869 13.0672
53 1 8.10878 14.4288 3.40524
54 1 4.3962 2.37166 3.28729
55 1 12.1316 11.4523 8.45349
56 1 8.7458 10.8517 -0.213292
57 1 1.53862 1.7361 8.48855
58 1 8.69585 5.89847 11.616
59 1 1.22107 9.19196 8.49846
60 1 10.635 10.5731 3.14594
61 1 11.4957 4.51089 15.2148
62 1 10.9209 6.7156 10.446
63 1 4.94638 10.4223 10.3546
64 1 7.94749 8.55464 1.09697
65 1 14.5919 7.80968 8.4877
66 1 5.26248 14.7619 3.62401
67 1 5.62202 2.26942 6.97039
68 1 1.29568 -0.0251437 10.348
69 1 11.6689 12.7598 1.5126
70 1 8.10674 4.34492 9.29769
71 1 15.2574 12.5827 5.71394
72 1 5.13758 11.4238 7.95676
73 1 0.807368 7.59384 14.5622
74 1 1.07308 4.35508 11.6836
75 1 -0.103901 0.899318 12.6958
76 1 12.4336 12.7126 5.99741
77 1 6.5124 0.898083 1.44852
78 1 5.22926 7.74021 7.34722
79 1 4.69818 3.85809 0.25821
80 1 14.6318 1.53081 0.260033
81 1 8.7843 1.26425 2.88569
82 1 10.1715 2.86217 10.2074
83 1 1.97586 4.56417 8.94346
84 1 12.6683 15.2799 4.82665
85 1 10.1623 4.44247 4.67024
86 1 8.26116 6.29332 15.2182
87 1 2.75694 2.33071 12.3211
88 1 10.1168 15.0402 10.6766
89 1 0.0214213 11.8389 0.424274
90 1 9.92368 3.73613 12.9889
91 1 7.93039 3.8304 3.09944
92 1 3.45334 12.7245 2.72154
93 1 13.7442 3.34545 8.32257
94 1 1.06378 7.50528 1.70711
95 1 13.5608 9.51663 12.896
96 1 6.16563 2.34739 9.6158
97 1 6.00658 4.12469 4.96415
98 1 13.0409 2.11594 12.6389
99 1 9.44842 7.22402 5.61094
100 1 3.08802 8.31472 10.412
101 1 4.27645 12.564 12.0172
102 1 0.247817 12.7339 12.6695
103 1 6.92237 8.32243 4.80264
104 1 10.2096 9.4039 11.0142
105 1 8.10819 14.6608 9.11245
106 1 0.724807 14.5893 14.8093
107 1 7.38606 3.87893 0.612739
108 1 13.59 6.17467 11.3541
109 1 6.57455 9.82429 14.0409
110 1 6.72525 7.05567 13.1783
111 1 3.66994 10.3273 5.96103
112 1 1.66543 1.60839 5.77048
113 1 9.05834 13.0173 1.11863
114 1 4.11235 0.213829 6.02437
115 1 10.3679 8.11545 2.36753
116 1 3.8208 14.5044 10.4834
117 1 6.27696 11.8524 2.07137
118 1 3.1417 11.1769 14.1451
119 1 12.971 3.21476 1.56998
120 1 12.4061 13.5738 10.1924
121 1 14.0948 6.56232 13.8874
122 1 11.4172 0.689063 2.37021
123 1 1.65778 1.52802 1.12949
124 1 7.74882 0.714644 6.86752
125 1 13.0368 10.8806 0.0461404
126 1 14.1536 3.59273 10.8941
127 1 12.9937 3.74289 4.44237
128 1 4.93288 10.2326 0.481908
129 2 4.52916 4.87676 12.9369
130 2 4.69703 5.06241 14.547
131 2 14.6886 4.58995 14.3163
132 2 0.0945933 3.63697 13.6264
133 2 7.74221 10.0755 4.24889
134 2 8.99342 10.7228 3.34745
135 2 0.788771 4.72927 4.53377
136 2 1.81069 3.95163 3.77685
137 2 14.4008 11.9252 10.4575
138 2 13.9069 10.7269 11.3647
139 2 10.6725 0.201823 0.765773
140 2 9.47367 0.652849 -0.0632908
141 2 13.5922 9.97565 6.76473
142 2 13.2152 10.5455 5.32572
143 2 3.67781 14.0964 8.7488
144 2 3.53939 14.3835 7.27865
145 2 3.09567 5.45978 2.78243
146 2 3.60518 6.19337 4.09913
147 2 5.08995 9.05489 1.76222
148 2 4.54185 7.79795 2.5309
149 2 13.4381 6.67871 2.59019
150 2 14.7355 6.25337 1.79471
151 2 0.77524 9.18308 14.2443
152 2 0.388115 10.6288 14.9234
153 2 14.1894 4.91997 4.56536
154 2 14.9228 6.4107 4.60147
155 2 10.8762 5.93786 7.61697
156 2 9.58879 6.53361 7.20672
157 2 12.1014 7.06547 4.8105
158 2 11.5829 7.27566 3.48345
159 2 9.70669 3.06202 7.62541
160 2 9.96186 3.35305 6.0781
161 2 3.89127 3.51534 11.556
162 2 5.31618 3.63484 11.0911
163 2 8.36256 9.80951 10.99
164 2 7.91946 11.2623 11.3115
165 2 7.80256 2.56448 14.9346
166 2 7.58248 1.21916 14.1315
167 2 6.10462 13.5421 -0.242407
168 2 4.85977 13.825 0.528199
169 2 14.4101 13.8153 10.1623
170 2 -0.0704958 13.4422 11.1966
171 2 11.7088 2.1063 6.54679
172 2 12.6961 1.18401 5.89058
173 2 10.9921 7.5299 13.3514
174 2 11.2636 8.01166 14.7268
175 2 1.57728 7.89927 5.7134
176 2 1.87051 8.36741 7.16573
177 2 11.4302 9.71213 6.20698
178 2 10.3486 10.1292 5.1128
179 2 14.4149 8.445 5.04536
180 2 0.00164071 8.8165 4.03796
181 2 1.02838 11.8189 4.67407
182 2 2.36173 10.8675 4.79517
183 2 6.32838 0.734699 10.265
184 2 5.21972 -0.301306 10.6492
185 2 12.568 9.37229 0.310345
186 2 12.8634 7.95827 0.824663
187 2 2.56428 7.41349 12.0109
188 2 3.14156 6.4193 13.0935
189 2 3.16723 6.41343 5.9805
190 2 3.10221 4.98312 5.63197
191 2 7.73547 13.1577 8.33842
192 2 8.06104 12.6116 6.87934
193 2 1.75422 3.38105 1.7562
194 2 3.25148 3.1727 2.47226
195 2 3.15037 12.6412 14.9757
196 2 3.16776 12.9566 0.983888
197 2 0.0720948 5.37286 6.52711
198 2 -0.245356 6.34024 7.61737
199 2 11.6512 14.8569 8.35832
200 2 11.802 13.9131 7.23812
201 2 2.07792 14.3411 2.56175
202 2 1.50629 0.044002 2.08403
203 2 6.3968 14.9261 13.4491
204 2 6.20534 0.425411 12.4267
205 2 0.660795 9.1318 1.85703
206 2 0.694078 10.391 2.87312
207 2 12.3708 14.0972 13.0916
208 2 12.1841 12.5232 13.366
209 2 2.09163 12.5603 7.87369
210 2 0.901668 12.2269 8.80367
211 2 13.6981 0.109016 0.335681
212 2 13.4443 14.3386 15.279
213 2 14.5376 15.2076 4.93591
214 2 0.228484 14.9795 4.13145
215 2 9.24837 13.4527 11.622
216 2 9.52013 12.2417 12.5392
217 2 12.875 7.30125 7.44426
218 2 13.1287 6.09272 6.70831
219 2 8.70364 11.2231 8.31889
220 2 9.67729 10.2938 7.51515
221 2 10.4955 10.2933 12.7118
222 2 10.0325 10.7711 14.1408
223 2 9.87115 13.0955 5.5737
224 2 8.95145 12.0108 4.93614
225 2 4.74251 0.928236 14.2575
226 2 3.48888 1.81195 13.8977
227 2 7.56401 13.1017 13.1985
228 2 6.02622 12.6782 13.2435
229 2 3.65548 5.64787 8.88705
230 2 4.53028 5.65688 10.1121
231 2 10.7483 -0.0654962 13.7661
232 2 11.7812 0.808853 13.0779
233 2 8.36482 -0.291862 3.46612
234 2 8.34757 14.0066 4.25098
235 2 5.1094 1.81781 2.95108
236 2 4.6411 2.96006 4.03817
237 2 12.5339 11.0417 9.22128
238 2 11.1841 11.2095 8.49369
239 2 8.60742 10.312 0.576946
240 2 8.69537 11.7883 0.0583599
241 2 1.42282 1.68337 7.50469
242 2 1.60998 2.65673 8.73322
243 2 8.87953 5.11923 12.1645
244 2 8.03029 6.40716 12.1505
245 2 1.95332 8.95172 9.16853
246 2 1.28006 10.1574 8.3047
247 2 11.2632 11.2403 2.79611
248 2 10.7957 9.70539 2.72449
249 2 11.5653 5.40273 -0.288322
250 2 11.1896 4.32648 14.2564
251 2 10.4204 6.65681 9.62663
252 2 10.2607 6.46258 11.0571
253 2 5.87632 10.1769 10.5904
254 2 4.94364 10.8143 9.46912
255 2 7.91802 7.6928 0.604333
256 2 7.17835 8.74025 1.63464
257 2 14.2008 7.92642 9.35992
258 2 -0.267797 8.44072 8.55252
259 2 6.16366 14.3915 3.8125
260 2 4.75946 14.0077 3.26281
261 2 6.35085 1.60272 6.90857
262 2 4.84301 1.75402 6.76165
263 2 1.34137 0.662419 9.62968
264 2 0.817817 14.7755 10.0578
265 2 10.8342 13.0339 1.10914
266 2 12.2496 13.5788 1.43103
267 2 7.99168 4.93257 10.0429
268 2 8.59208 4.87508 8.55834
269 2 -0.0863874 13.5026 5.64494
270 2 0.00602987 12.1735 6.56287
271 2 6.0476 11.6847 7.84187
272 2 4.65027 12.2574 7.8746
273 2 -0.10786 7.21382 14.4417
274 2 1.40859 7.20909 13.8607
275 2 1.10879 5.19843 12.1297
276 2 0.142322 4.18446 11.4107
277 2 0.192301 0.569522 11.8253
278 2 0.262058 0.216297 13.3227
279 2 13.325 12.966 5.76917
280 2 12.474 12.1815 6.79075
281 2 6.96454 1.33987 0.72514
282 2 6.22808 -0.0168944 1.14781
283 2 5.28424 6.95392 7.95734
284 2 5.69738 8.44349 7.79401
285 2 4.59695 2.96295 -0.156096
286 2 4.05776 3.8329 1.0606
287 2 14.2623 2.20361 0.861912
288 2 14.7961 2.02476 15.1013
289 2 7.90736 0.984376 2.41964
290 2 8.42535 2.08554 3.23522
291 2 9.33834 3.30929 9.83257
292 2 10.1754 1.88055 10.1119
293 2 1.75381 4.52695 9.90946
294 2 1.11552 4.78978 8.54253
295 2 12.2645 0.0873025 4.07993
296 2 12.0334 14.6435 5.15054
297 2 9.97133 5.30379 5.02216
298 2 9.51596 4.30903 3.95105
299 2 9.11176 6.41377 14.7882
300 2 7.57568 6.54 14.599
301 2 2.07189 2.92609 11.9449
302 2 2.69894 1.52435 11.845
303 2 10.8501 14.3815 10.4642
304 2 10.5118 -0.206863 11.478
305 2 0.274248 12.7719 0.61942
306 2 0.108425 11.2293 1.22179
307 2 9.70727 2.84376 13.3266
308 2 10.3129 3.49932 12.1129
309 2 7.16744 3.93944 3.6373
310 2 7.68964 3.77425 2.12389
311 2 2.7812 12.2345 3.34142
312 2 4.17512 12.108 2.65722
313 2 13.4252 2.63657 7.76521
314 2 14.4885 3.85196 7.85505
315 2 1.16553 7.50623 0.684607
316 2 1.80702 6.9489 2.01705
317 2 14.4305 9.58843 13.243
318 2 13.0187 10.0336 13.4694
319 2 5.70123 2.57075 8.68482
320 2 6.80813 3.05178 9.52933
321 2 5.35787 4.80808 5.12533
322 2 5.96938 3.53575 5.71789
323 2 13.0854 2.74416 13.3668
324 2 13.871 1.59988 12.7008
325 2 8.54415 7.16809 5.28465
326 2 9.76316 8.11779 5.62097
327 2 3.5805 7.58031 10.0651
328 2 3.76188 9.05652 10.3377
329 2 4.55808 11.8882 11.3243
330 2 3.56374 12.075 12.5347
331 2 0.334551 11.7965 12.6005
332 2 0.24849 12.8839 13.5924
333 2 6.35726 8.22802 5.65351
334 2 6.38531 8.12785 4.02112
335 2 10.214 9.5859 10.0692
336 2 10.6644 8.57403 11.1276
337 2 8.95214 14.8857 9.64428
338 2 7.3584 14.7538 9.70982
339 2 0.591563 15.0693 0.0182509
340 2 1.70203 14.3696 14.7724
341 2 6.4741 3.89198 0.306924
342 2 7.8908 4.74294 0.474307
343 2 13.7745 5.25403 11.174
344 2 12.6407 6.3597 11.1641
345 2 6.61181 10.3071 13.1711
346 2 7.38294 10.2018 14.4287
347 2 5.92965 6.53312 13.3142
348 2 6.65131 8.00804 13.4902
349 2 4.1508 10.9057 6.58172
350 2 3.72612 9.43762 6.27968
351 2 0.960879 1.05271 5.33877
352 2 1.48012 2.49213 5.40543
353 2 8.71011 13.4532 1.93204
354 2 8.99593 13.78 0.520382
355 2 3.28533 0.709593 5.89467
356 2 4.52263 -0.105961 5.1872
357 2 10.8957 8.12501 1.5533
358 2 9.392 8.09909 2.00114
359 2 2.85608 14.8006 10.6062
360 2 3.90293 13.7417 11.0449
361 2 6.48734 12.6937 1.54518
362 2 7.04029 11.6822 2.67807
363 2 2.24681 10.7375 14.3261
364 2 3.668 10.6767 14.8241
365 2 12.3482 3.69431 0.972113
366 2 13.2921 3.83378 2.19605
367 2 12.5073 12.8061 9.60602
368 2 12.5354 13.311 11.1419
369 2 13.9506 6.55755 12.8999
370 2 13.4462 7.1125 14.3857
371 2 11.8334 1.45816 2.05064
372 2 10.4376 0.894116 2.52875
373 2 0.844146 1.54638 0.605455
374 2 2.39804 1.38307 0.478242
375 2 7.77884 0.12269 7.66547
376 2 8.60235 1.23456 6.91956
377 2 12.4122 11.5105 0.551261
378 2 13.9301 11.2794 0.187093
379 2 13.8259 3.47873 9.96028
380 2 13.5184 3.1733 11.5056
381 2 12.9666 3.11167 5.2382
382 2 12.0906 4.05916 4.29522
383 2 5.48443 10.7696 1.07083
384 2 5.47524 10.05 -0.286949
ITEM: TIMESTEP
200
ITEM: NUMBER OF ATOMS
384
ITEM: BOX BOUNDS pp pp pp
-2.1868351273538700e-01 1.5218683512735430e+01
-2.1868351273538700e-01 1.5218683512735430e+01
-2.1868351273538700e-01 1.5218683512735430e+01
ITEM: ATOMS id type x y z
1 1 4.49059 5.64846 13.1113
2 1 14.5377 3.90522 13.9164
3 1 7.60645 10.6024 3.75535
4 1 1.73834 3.75628 4.58576
5 1 13.6586 10.1804 10.2753
6 1 9.9494 0.227583 -0.0164286
7 1 13.3057 9.6591 6.04528
8 1 3.33387 13.5453 7.64412
9 1 3.18326 6.45684 2.91141
10 1 5.56042 7.84014 2.52172
11 1 13.7686 6.56338 1.83554
12 1 0.598405 10.0466 13.8035
13 1 14.9551 5.39014 4.88385
14 1 9.84675 5.94643 7.85323
15 1 12.2495 6.98622 4.00765
16 1 9.9192 2.75076 6.7901
17 1 4.73626 3.87844 11.2192
18 1 7.34207 10.3643 11.3715
19 1 8.36516 1.97623 14.4204
20 1 5.8266 13.93 0.571428
21 1 -0.124771 13.2993 10.018
22 1 12.5065 1.81957 6.26597
23 1 10.6403 7.08263 14.1636
24 1 1.93287 7.82213 6.31977
25 1 10.3875 9.19736 5.79823
26 1 15.1538 8.18452 4.73017
27 1 1.79039 11.4153 4.37415
28 1 5.96231 0.272294 10.5197
29 1 12.2877 7.99777 0.346458
30 1 2.2687 6.57327 12.2913
31 1 3.54658 5.73413 5.36654
32 1 7.70762 11.9197 7.87505
33 1 3.12786 3.59432 2.22378
34 1 3.01619 13.2818 0.203051
35 1 -0.0430815 5.27806 7.62063
36 1 10.6941 14.5354 7.38531
37 1 1.24623 14.4945 2.30549
38 1 6.08464 0.404519 13.3037
39 1 0.385675 9.906 2.72695
40 1 12.2476 13.1358 12.5254
41 1 0.975078 12.2403 8.0439
42 1 13.4646 14.2335 0.20024
43 1 -0.0784702 15.0424 4.52552
44 1 8.51989 12.6966 11.7878
45 1 12.4826 6.28639 6.77336
46 1 9.724 10.2507 8.2507
47 1 10.4568 11.0051 12.8428
48 1 8.81368 12.3048 5.39478
49 1 3.96721 1.58352 14.2714
50 1 6.52023 13.2612 13.4242
51 1 4.10407 5.96786 9.30911
52 1 11.2721 0.00729719 13.1264
53 1 7.5775 14.2001 3.5252
54 1 4.70774 2.09639 3.57626
55 1 12.2837 11.1968 8.39486
56 1 8.83704 10.538 -0.203538
57 1 1.64537 1.80583 8.37547
58 1 8.52583 5.53579 11.5707
59 1 1.18088 9.16048 8.53087
60 1 10.4594 10.5618 3.36489
61 1 11.5299 4.32729 14.8666
62 1 10.5152 6.90062 10.5224
63 1 4.84892 10.2119 10.1072
64 1 7.98503 8.03789 1.28569
65 1 14.2996 7.52922 8.63282
66 1 4.91114 14.8286 3.71763
67 1 5.81745 1.92432 6.82104
68 1 1.33372 0.424106 10.3725
69 1 11.4529 12.4128 1.74915
70 1 8.22486 4.23446 9.37527
71 1 15.1562 12.5029 5.66689
72 1 4.91094 11.3496 7.55969
73 1 0.95832 7.50267 14.3506
74 1 1.06242 4.27419 11.7413
75 1 -0.0785283 0.604198 12.7385
76 1 12.4747 12.5274 6.02029
77 1 6.21431 1.04563 1.51666
78 1 5.5301 8.06353 6.95799
79 1 4.55967 3.96382 -0.208193
80 1 14.4332 1.82492 0.327684
81 1 8.53637 1.33422 2.6314
82 1 10.128 2.53771 10.2585
83 1 1.84384 4.40491 8.83058
84 1 12.6991 15.1126 4.28326
85 1 10.2422 4.75717 4.89632
86 1 8.31234 6.3551 14.9588
87 1 2.81369 2.21438 12.0752
88 1 9.91628 14.7455 10.7385
89 1 15.182 11.2739 0.771876
90 1 9.69767 3.55025 12.7651
91 1 7.91562 3.86261 3.56048
92 1 3.27725 12.6701 2.6473
93 1 13.4524 3.5744 8.22626
94 1 0.75395 7.51252 1.68325
95 1 13.4272 10.0292 12.7022
96 1 6.19044 2.7388 9.28862
97 1 5.78465 3.91316 5.17386
98 1 13.0968 1.85476 12.6707
99 1 8.9364 6.98483 5.42242
100 1 3.13067 8.20231 10.3177
101 1 4.4412 12.216 12.0363
102 1 0.639562 12.6906 12.3831
103 1 6.76964 8.4757 4.71312
104 1 9.7708 9.51352 10.7933
105 1 7.92822 14.4585 8.96837
106 1 0.80087 14.3426 14.5368
107 1 7.32962 3.95014 0.296395
108 1 13.3482 6.67746 10.8599
109 1 6.64808 9.55262 13.6192
110 1 6.72184 6.92338 13.155
111 1 3.56567 9.80105 5.59788
112 1 1.56281 1.23375 5.69085
113 1 9.11921 13.2425 0.985946
114 1 3.92346 0.200784 6.10912
115 1 10.4614 8.09769 2.34542
116 1 3.72625 14.2328 10.2918
117 1 5.64151 11.6083 2.17982
118 1 3.1973 11.0691 14.2319
119 1 12.3298 2.95512 1.54803
120 1 12.5295 13.6674 10.0787
121 1 13.9371 6.51858 13.5993
122 1 11.1723 0.849737 2.41147
123 1 1.79786 1.42114 1.05586
124 1 8.09011 0.679269 6.70031
125 1 12.6852 10.65 -0.148045
126 1 14.0114 3.80752 10.7602
127 1 12.5768 4.17664 4.0588
128 1 4.96035 9.67059 0.442373
129 2 4.75473 5.00574 12.5443
130 2 4.25281 5.18802 13.9305
131 2 14.2487 4.74438 13.9478
132 2 -0.114573 3.98932 13.3163
133 2 7.09559 9.84627 4.26616
134 2 8.67774 10.5409 3.36863
135 2 1.00345 4.43592 4.50541
136 2 2.23635 3.86228 3.77521
137 2 14.4456 10.9141 10.2289
138 2 13.4688 10.1699 11.2442
139 2 10.4483 0.673596 1.05374
140 2 9.16991 0.879407 15.147
141 2 13.2345 9.59847 7.01046
142 2 13.4222 10.5764 5.82758
143 2 3.61109 14.0076 8.57859
144 2 3.52364 14.1153 6.93632
145 2 2.93435 5.86708 2.33795
146 2 3.20564 6.32107 3.78731
147 2 5.23857 8.76487 1.88499
148 2 4.82109 7.24624 2.51249
149 2 13.2034 6.66807 2.58643
150 2 14.6625 6.79978 2.02971
151 2 0.804055 9.04872 13.7723
152 2 0.401675 10.3176 14.7411
153 2 13.925 4.94892 4.53705
154 2 14.9692 6.32972 4.60117
155 2 10.7981 6.08424 7.36937
156 2 9.34334 6.67611 7.31439
157 2 12.4045 6.92086 4.9716
158 2 11.4385 7.75471 3.82978
159 2 9.64421 3.16014 7.69079
160 2 9.95481 3.63287 6.28519
161 2 4.20553 3.10192 11.1306
162 2 5.5038 3.80305 10.45
163 2 8.26083 9.91724 11.4359
164 2 7.52468 11.2495 11.2866
165 2 8.03739 2.76073 15.1165
166 2 7.65756 1.71355 13.8964
167 2 6.26968 13.7633 15.19
168 2 4.83594 14.0711 0.41935
169 2 14.468 13.6042 10.0204
170 2 0.207914 13.1138 10.9221
171 2 11.4744 1.99999 6.49761
172 2 12.7153 0.933599 5.60478
173 2 10.7908 7.22441 13.2813
174 2 11.2852 7.77204 14.7383
175 2 1.28999 7.85153 5.5474
176 2 1.59626 8.36391 7.0865
177 2 11.4916 9.05974 5.87093
178 2 10.4357 9.7809 4.9974
179 2 14.4874 8.82791 5.30405
180 2 0.0510341 8.71545 3.97107
181 2 1.05296 11.8279 4.97796
182 2 2.32771 10.8594 4.8984
183 2 6.01548 1.13046 10.0154
184 2 4.98864 0.00765473 10.4364
185 2 12.5818 8.97655 0.0370908
186 2 13.1997 7.36302 0.773097
187 2 2.53355 7.25806 11.5975
188 2 3.0244 6.14096 12.7321
189 2 3.18884 6.43183 5.83432
190 2 3.00978 4.97072 5.28551
191 2 7.80877 12.7886 8.50142
192 2 8.07202 12.0959 7.01632
193 2 2.55878 2.95961 1.74968
194 2 3.72649 2.74823 2.7583
195 2 2.97994 12.4019 14.9703
196 2 2.96118 12.9618 1.16136
197 2 0.00477983 5.68694 6.59393
198 2 14.9096 6.29926 7.874
199 2 11.3537 -0.215591 7.42688
200 2 11.1104 13.7847 7.08204
201 2 2.06413 14.1103 2.55161
202 2 1.85332 15.1953 1.609
203 2 6.14605 14.7369 13.343
204 2 6.02212 0.311959 12.3739
205 2 0.799634 9.15509 2.24467
206 2 0.746789 10.5252 3.37662
207 2 11.6454 13.8789 12.6244
208 2 11.5069 12.3894 12.4652
209 2 1.87858 12.6968 7.79681
210 2 0.346464 12.8772 8.88855
211 2 13.4052 15.112 0.387614
212 2 13.3401 14.242 14.5385
213 2 14.4858 -0.115193 4.3826
214 2 0.315694 14.7489 3.62741
215 2 9.03439 13.4188 11.2049
216 2 9.33694 12.2469 12.1595
217 2 12.978 6.66767 7.44477
218 2 12.9338 5.42165 6.51873
219 2 8.75769 10.8021 8.06855
220 2 9.79929 9.74834 7.41818
221 2 10.2573 10.3778 12.2058
222 2 9.9485 10.7079 13.5919
223 2 9.9436 12.2865 5.19208
224 2 8.4984 11.6421 4.90612
225 2 4.64741 0.992938 14.0255
226 2 3.43983 1.82596 13.499
227 2 7.48179 12.8775 13.0902
228 2 5.78446 13.0594 12.8313
229 2 3.38368 5.22874 9.08674
230 2 4.73225 5.54841 9.75372
231 2 10.8255 0.31393 14.0504
232 2 11.8613 0.702297 12.8794
233 2 8.16782 14.9566 3.44263
234 2 8.06007 13.8797 4.25813
235 2 5.25144 1.65685 2.75074
236 2 5.3315 2.68649 3.92635
237 2 12.571 10.9456 9.37422
238 2 11.3137 10.8768 8.22184
239 2 8.45438 9.9834 0.409913
240 2 8.87748 11.5684 0.169593
241 2 1.30942 1.60367 7.37366
242 2 1.72735 2.71154 8.44763
243 2 8.85471 4.70462 12.1055
244 2 7.8283 6.03734 12.0752
245 2 1.6177 8.83361 9.38065
246 2 1.31068 10.1715 8.47953
247 2 10.9359 11.2314 2.86723
248 2 10.7607 9.68357 2.82754
249 2 11.2455 5.21632 14.9407
250 2 11.0126 3.91347 13.9708
251 2 10.5278 6.34443 9.55933
252 2 9.57494 6.49887 10.8423
253 2 5.77629 10.1706 10.0066
254 2 4.68023 10.7125 9.18967
255 2 8.12083 7.40625 0.534329
256 2 7.03871 8.09824 1.99999
257 2 13.9094 7.27485 9.65894
258 2 15.2133 8.15362 8.92547
259 2 5.80161 14.5013 3.97064
260 2 4.36726 13.8979 3.54191
261 2 6.55345 1.34501 6.55704
262 2 4.9989 1.39702 6.76895
263 2 1.33293 1.02767 9.5766
264 2 0.818848 15.1022 10.189
265 2 10.6327 12.7413 1.38669
266 2 12.1409 13.035 1.7306
267 2 8.22068 4.9338 10.3723
268 2 8.66514 4.93601 8.79525
269 2 -0.126043 13.3551 5.33786
270 2 0.0746859 12.4521 6.41443
271 2 5.82207 11.5341 7.39954
272 2 4.29147 12.0292 7.51296
273 2 -0.0839022 7.3819 14.277
274 2 1.42918 7.18801 13.6522
275 2 1.46604 5.17113 11.8831
276 2 0.285519 4.25295 11.2435
277 2 0.452526 0.525983 11.9535
278 2 0.594624 0.401876 13.329
279 2 13.418 12.6895 5.72921
280 2 12.3721 11.9038 6.85723
281 2 6.23099 1.5521 0.698865
282 2 6.22018 0.0590542 1.3086
283 2 5.15317 7.2469 7.25603
284 2 4.91668 8.718 7.27945
285 2 4.32031 3.11631 14.6962
286 2 4.10502 3.98534 0.498386
287 2 13.9173 2.21026 0.914237
288 2 14.7603 2.51491 15.1061
289 2 7.82438 1.18916 2.0081
290 2 8.47504 2.30866 3.00374
291 2 9.74663 3.04189 9.51433
292 2 10.3498 1.64783 10.0723
293 2 1.45525 4.64641 9.71081
294 2 1.0797 4.8756 8.3289
295 2 12.2472 -0.0924077 3.5235
296 2 12.3645 14.4835 4.68509
297 2 9.82683 5.85279 4.83957
298 2 9.68119 4.34632 4.2517
299 2 9.24239 6.77718 14.5192
300 2 7.61619 6.47415 14.2662
301 2 2.10458 3.00784 12.0108
302 2 2.46074 1.571 11.4766
303 2 10.7588 14.6501 10.2551
304 2 10.3979 15.0016 11.669
305 2 -0.0951704 12.1625 1.02276
306 2 -0.0712516 10.8233 1.56651
307 2 9.29543 2.79358 13.2974
308 2 10.1282 3.26648 12.0896
309 2 7.04563 4.03024 4.18437
310 2 7.69067 4.2276 2.76807
311 2 2.5117 12.1631 3.31184
312 2 4.24002 12.1031 2.67417
313 2 13.2242 2.79947 7.59289
314 2 14.3208 4.10247 8.12784
315 2 0.96971 7.46743 0.769201
316 2 1.52168 7.15607 2.33936
317 2 14.2859 10.0673 12.9046
318 2 12.919 10.466 13.4033
319 2 5.94528 2.57663 8.27906
320 2 7.06116 3.46256 9.25455
321 2 5.02784 4.5322 5.33249
322 2 5.73848 3.29737 5.95834
323 2 13.0734 2.45904 13.3384
324 2 13.956 1.24034 12.6732
325 2 8.15159 7.26403 4.96469
326 2 9.55296 8.04044 5.4475
327 2 3.64249 7.40095 10.1602
328 2 3.79535 8.91358 10.1997
329 2 4.62917 11.6572 11.3027
330 2 3.89895 11.836 12.8018
331 2 0.395963 11.791 12.9244
332 2 0.416006 13.3882 13.0442
333 2 6.2227 8.57814 5.43073
334 2 6.25421 8.15874 3.91606
335 2 9.65852 9.89547 9.98569
336 2 10.0566 8.43581 10.798
337 2 8.68682 14.9835 9.55468
338 2 7.08204 14.7207 9.53857
339 2 0.342476 14.8549 15.1639
340 2 1.74624 13.961 14.9686
341 2 6.28094 4.03344 0.259149
342 2 7.72402 4.74747 0.314079
343 2 13.5986 5.67014 10.737
344 2 12.2948 6.60484 10.6619
345 2 6.79358 10.0237 12.8163
346 2 7.46754 9.7032 14.3139
347 2 5.68898 6.46649 13.103
348 2 6.61793 7.94033 13.2266
349 2 3.74699 10.3666 6.3342
350 2 3.00946 9.0935 6.02416
351 2 0.915841 0.649212 5.24107
352 2 1.34223 2.14655 5.31747
353 2 8.75111 13.4833 1.81343
354 2 9.30151 14.0436 0.414886
355 2 2.88804 0.419258 5.99339
356 2 4.24118 15.2018 5.1861
357 2 11.0114 7.96084 1.56401
358 2 9.68342 7.90464 1.81607
359 2 2.95558 14.7371 10.3795
360 2 3.9139 13.6045 11.0527
361 2 5.93105 12.3937 1.75848
362 2 6.48134 11.1576 2.79643
363 2 2.30132 10.7031 14.0949
364 2 3.65513 10.5591 14.8557
365 2 12.0146 3.40043 0.873068
366 2 12.6217 3.49913 2.39963
367 2 12.3175 12.955 9.57865
368 2 12.5245 13.3076 11.0875
369 2 13.7075 6.70494 12.702
370 2 13.0763 6.61332 14.1785
371 2 11.5523 1.69567 2.17612
372 2 10.4112 1.10776 2.80251
373 2 0.844331 1.51511 0.812253
374 2 2.00646 1.24534 0.190265
375 2 8.08732 0.206923 7.45058
376 2 8.85139 1.37471 6.75036
377 2 12.1814 11.204 0.643236
378 2 13.7761 10.6978 0.241553
379 2 13.6903 3.55018 9.86538
380 2 13.7299 3.02498 11.3373
381 2 12.5392 3.31415 4.53852
382 2 11.6659 4.50419 4.18536
383 2 5.43761 10.4522 0.871932
384 2 5.43759 9.48561 15.1069
ITEM: TIMESTEP
400
ITEM: NUMBER OF ATOMS
384
ITEM: BOX BOUNDS pp pp pp
-1.3021218416963443e-01 1.5130212184169675e+01
-1.3021218416963443e-01 1.5130212184169675e+01
-1.3021218416963443e-01 1.5130212184169675e+01
ITEM: ATOMS id type x y z
1 1 4.52385 5.46557 12.6421
2 1 14.5896 3.81861 14.0994
3 1 7.30176 10.8027 3.47052
4 1 1.72221 3.56104 4.45314
5 1 13.5694 9.57077 9.91831
6 1 9.44235 0.000439631 15.0123
7 1 13.3142 9.79786 6.44302
8 1 3.43136 12.9962 7.90343
9 1 3.42695 6.04514 2.46097
10 1 5.53281 7.51078 2.08953
11 1 13.8322 6.65992 2.06185
12 1 0.562978 10.1186 13.9534
13 1 15.1276 5.23759 4.86022
14 1 9.61504 6.44431 8.05438
15 1 12.2443 6.80673 4.48357
16 1 10.2394 2.59481 6.80142
17 1 4.60315 3.75436 10.6659
18 1 6.82722 10.4816 11.146
19 1 7.9425 2.01494 14.4512
20 1 5.77047 13.4923 0.504231
21 1 15.062 13.358 10.0585
22 1 12.2981 1.92889 5.67634
23 1 10.8153 6.4007 13.4504
24 1 2.02811 8.01134 6.43008
25 1 10.7381 9.06326 5.70292
26 1 15.052 7.95519 4.76282
27 1 1.65564 11.273 4.57336
28 1 5.95078 0.537048 10.4331
29 1 12.2621 7.82792 0.0583698
30 1 2.03762 6.40333 12.1106
31 1 3.30932 5.66859 5.28091
32 1 7.50338 11.8791 7.75153
33 1 3.19051 3.46885 1.8203
34 1 3.27631 12.9491 -0.00630125
35 1 -0.0780392 4.95926 7.48885
36 1 10.5462 14.6873 7.23128
37 1 1.04177 14.2014 1.75738
38 1 5.85321 0.854622 13.0255
39 1 0.328349 9.69286 2.90584
40 1 12.2686 13.0057 12.3505
41 1 1.11773 11.8996 8.17683
42 1 13.4676 13.8536 15.0888
43 1 15.0269 14.8129 4.17861
44 1 8.34509 12.7476 11.9222
45 1 11.9896 5.92449 7.14684
46 1 9.68602 10.2735 7.97173
47 1 10.0806 10.9855 12.844
48 1 8.5842 12.3683 5.30413
49 1 3.64909 1.74082 13.9169
50 1 6.08965 13.4301 13.2094
51 1 4.16827 6.14168 8.75609
52 1 11.1693 0.132936 12.8837
53 1 7.41497 14.0099 3.52921
54 1 4.60556 2.13977 3.7543
55 1 12.1584 11.2757 8.54753
56 1 8.9106 10.2578 0.0225468
57 1 2.05542 1.43959 8.18806
58 1 8.49539 5.25346 11.642
59 1 0.683595 9.45499 8.77679
60 1 10.086 10.57 3.66633
61 1 11.5861 3.8531 14.393
62 1 10.0439 7.01299 10.4935
63 1 4.5445 10.0355 9.7832
64 1 8.17494 8.09916 1.50885
65 1 14.0311 7.21517 8.11072
66 1 4.92193 14.7289 3.75403
67 1 5.75344 1.79168 6.50904
68 1 1.4281 0.125199 10.3005
69 1 11.2198 12.5618 1.9254
70 1 8.78795 3.94751 9.23641
71 1 15.0894 12.6248 5.70477
72 1 5.04745 11.0636 7.2077
73 1 0.869755 7.59078 14.2025
74 1 0.579979 4.19991 11.586
75 1 15.0913 0.671451 12.6021
76 1 12.3959 12.7473 5.96509
77 1 6.25647 1.0658 1.1007
78 1 5.5881 8.00355 7.49226
79 1 4.75077 3.99668 15.0022
80 1 14.5026 1.68606 0.59464
81 1 8.20254 1.24923 3.03301
82 1 10.286 2.08183 10.5367
83 1 1.99871 4.15282 8.85122
84 1 12.3658 14.925 4.2841
85 1 9.70862 4.55529 4.86839
86 1 8.31265 6.18399 14.794
87 1 2.60905 2.21802 11.5806
88 1 10.1295 14.5534 10.6647
89 1 14.7891 11.3539 0.953928
90 1 9.69726 3.21388 12.7379
91 1 7.62286 3.75117 3.45676
92 1 3.1686 12.7457 2.78348
93 1 13.0913 3.74811 7.94608
94 1 1.20429 7.70051 1.64005
95 1 13.2566 9.83605 12.6952
96 1 6.47726 2.84018 8.9019
97 1 6.04396 4.46083 5.62129
98 1 12.7762 2.15962 12.5458
99 1 8.71603 7.20599 5.77386
100 1 2.9033 8.13667 10.0039
101 1 4.2756 12.0869 11.746
102 1 0.971215 12.2416 12.0868
103 1 6.45931 8.36271 4.62581
104 1 9.23982 9.5569 10.6066
105 1 7.62899 14.3806 8.65815
106 1 1.03354 14.0095 14.1212
107 1 7.03361 3.94465 1.01577
108 1 12.5475 6.55151 11.0546
109 1 6.8987 9.47889 13.6304
110 1 6.76317 6.95593 12.7833
111 1 3.82463 9.67148 4.99174
112 1 1.38404 1.08465 5.71664
113 1 8.80522 12.9832 1.26424
114 1 3.67644 15.0231 6.2982
115 1 10.7971 8.27265 2.54873
116 1 3.80528 14.1719 10.175
117 1 5.21143 11.3518 1.77353
118 1 3.20688 10.8155 13.992
119 1 12.164 2.94112 1.77879
120 1 12.3643 13.4785 9.86673
121 1 13.7922 6.70261 13.3605
122 1 10.7178 0.686945 2.43225
123 1 1.76213 1.58092 0.857497
124 1 8.20065 0.748906 5.96098
125 1 12.3926 10.4489 0.140894
126 1 13.3218 4.03153 10.6485
127 1 12.9275 4.00481 4.40236
128 1 4.76944 9.48787 0.183478
129 2 4.65981 4.81043 11.7747
130 2 4.44045 5.04777 13.4975
131 2 13.9974 4.48684 14.2606
132 2 -0.0265572 4.20888 13.2418
133 2 7.33906 9.96117 3.8411
134 2 8.04455 10.8021 2.93872
135 2 1.05197 4.15686 4.37024
136 2 2.22031 3.38965 3.70146
137 2 14.5274 9.45628 9.72538
138 2 13.5229 9.45972 10.8104
139 2 9.83102 0.428305 0.564703
140 2 8.83724 0.812924 14.8163
141 2 13.3616 10.1206 7.3106
142 2 13.5128 10.5409 5.89362
143 2 3.51696 13.4511 8.81576
144 2 3.51464 13.5856 7.12556
145 2 3.25527 5.22666 2.4145
146 2 3.3172 6.14112 3.4749
147 2 5.07167 8.36667 1.64888
148 2 4.81291 6.83547 2.12768
149 2 13.4035 6.80102 2.86103
150 2 14.7975 6.85029 2.06373
151 2 0.790521 9.25663 13.9866
152 2 0.138755 10.2257 14.7795
153 2 14.3705 4.61537 4.75644
154 2 15.0187 6.09006 4.40194
155 2 10.5403 6.29935 7.81713
156 2 9.16465 6.85068 7.18645
157 2 12.1066 6.57271 5.49823
158 2 11.6246 7.29653 4.0385
159 2 9.93672 2.75853 7.67146
160 2 9.91076 3.36692 6.31903
161 2 4.05719 2.91032 10.9227
162 2 5.03697 3.41072 9.85402
163 2 7.59885 9.87997 10.7631
164 2 7.12325 11.4802 11.243
165 2 7.64818 2.68461 -0.078071
166 2 7.18808 1.81641 13.9922
167 2 6.16168 13.3613 14.9385
168 2 4.69145 13.6307 0.246051
169 2 14.2127 13.6445 10.0313
170 2 0.0912834 12.8209 10.9654
171 2 11.312 1.90471 6.06573
172 2 12.6414 1.08514 5.41121
173 2 11.1585 6.37429 12.5941
174 2 11.3053 6.79307 14.4293
175 2 1.06632 7.97866 5.88243
176 2 1.65594 8.47126 7.37388
177 2 11.7951 9.09893 5.86884
178 2 10.6286 9.62858 4.86991
179 2 14.199 8.14038 4.9318
180 2 -0.094405 8.50975 4.01234
181 2 0.986171 11.7574 5.23606
182 2 2.2899 10.5597 4.77365
183 2 6.00975 1.05444 9.79067
184 2 5.27708 15.1263 10.1879
185 2 12.3312 8.84798 -0.0627914
186 2 12.7394 7.5581 0.812785
187 2 2.4171 7.14028 11.538
188 2 2.91287 5.96474 12.2926
189 2 2.71629 6.27097 5.70086
190 2 2.81551 4.96466 5.06221
191 2 7.38673 12.5251 8.53517
192 2 7.82013 12.2467 6.75537
193 2 2.52819 2.78662 1.36832
194 2 3.85705 2.71616 2.09988
195 2 3.48684 11.8652 14.8303
196 2 3.16648 12.6074 0.888273
197 2 -0.0627747 5.1455 6.57305
198 2 14.9159 5.93244 7.73789
199 2 10.8255 14.6741 8.24588
200 2 11.1285 14.0249 6.93027
201 2 1.84658 13.8532 2.04802
202 2 1.18446 14.9506 1.19145
203 2 6.09 -0.0868384 13.3619
204 2 6.06481 0.878342 12.0409
205 2 0.922867 9.00322 2.39058
206 2 1.12356 10.2994 3.3101
207 2 11.7149 13.5808 12.6586
208 2 11.9131 12.2336 12.7426
209 2 2.04161 12.2137 8.11333
210 2 0.561627 12.5235 8.78291
211 2 13.6251 14.8888 14.9422
212 2 13.4783 13.2897 14.124
213 2 14.0041 14.9245 4.00569
214 2 0.140039 14.6535 3.18046
215 2 8.79271 13.1854 11.2077
216 2 9.25035 12.3242 12.3841
217 2 12.7014 6.38829 7.50962