ITEM: TIMESTEP
0
ITEM: NUMBER OF ATOMS
384
ITEM: BOX BOUNDS pp pp pp
0.0000000000000000e+00 1.5645677530000000e+01
0.0000000000000000e+00 1.4707145290000000e+01
0.0000000000000000e+00 1.8073037029999998e+01
ITEM: ATOMS id type x y z
1 1 1.38 1.76 3.37
2 1 5.2 4.47 1.11
3 1 6.59 5.39 3.31
4 1 5.28 4.49 5.56
5 1 2.59 0.84 5.67
6 1 2.69 5.43 5.56
7 1 5.2 1.71 1.07
8 1 5.2 1.73 5.58
9 1 1.32 4.61 7.82
10 1 1.3 4.52 3.36
11 1 2.61 5.41 1.1
12 1 2.59 0.82 1.07
13 1 6.54 0.87 3.33
14 1 6.54 0.88 7.83
15 1 6.51 5.4 7.86
16 1 1.35 1.85 7.92
17 1 9.2 1.76 3.37
18 1 13.05 4.55 1.15
19 1 14.35 5.46 3.4
20 1 13.1 4.49 5.66
21 1 10.41 0.84 5.67
22 1 10.51 5.43 5.65
23 1 13.07 1.79 1.07
24 1 13.02 1.73 5.58
25 1 9.15 4.61 7.91
26 1 9.2 4.52 3.4
27 1 10.45 5.49 1.15
28 1 10.49 0.82 1.12
29 1 14.36 0.87 3.33
30 1 14.36 0.88 7.83
31 1 14.36 5.48 7.9
32 1 9.17 1.85 7.92
33 1 1.3 9.11 3.32
34 1 5.3 11.9 1.11
35 1 6.53 12.81 3.4
36 1 5.2 11.84 5.61
37 1 2.59 8.19 5.58
38 1 2.61 12.79 5.61
39 1 5.25 9.14 1.16
40 1 5.2 9.08 5.67
41 1 1.32 11.96 7.91
42 1 1.38 11.87 3.31
43 1 2.69 12.77 1.06
44 1 2.67 8.17 1.12
45 1 6.49 8.14 3.42
46 1 6.49 8.16 7.92
47 1 6.53 12.83 7.81
48 1 1.35 9.21 7.83
49 1 9.09 9.19 3.37
50 1 13.13 11.9 1.11
51 1 14.44 12.82 3.35
52 1 13.1 11.84 5.56
53 1 10.41 8.19 5.58
54 1 10.51 12.79 5.65
55 1 12.99 9.14 1.12
56 1 13.02 9.08 5.67
57 1 9.12 11.89 7.86
58 1 9.15 11.95 3.4
59 1 10.51 12.77 1.15
60 1 10.38 8.25 1.12
61 1 14.29 8.22 3.37
62 1 14.36 8.24 7.92
63 1 14.36 12.83 7.81
64 1 9.12 9.13 7.83
65 1 1.35 1.83 12.45
66 1 5.2 4.47 10.14
67 1 6.59 5.39 12.34
68 1 5.3 4.56 14.65
69 1 2.67 0.84 14.66
70 1 2.69 5.43 14.6
71 1 5.28 1.71 10.15
72 1 5.25 1.81 14.61
73 1 1.32 4.61 16.85
74 1 1.32 4.59 12.35
75 1 2.63 5.49 10.09
76 1 2.64 0.89 10.2
77 1 6.57 0.79 12.41
78 1 6.54 0.88 16.87
79 1 6.53 5.48 16.94
80 1 1.35 1.85 16.86
81 1 9.2 1.76 12.41
82 1 13.02 4.47 10.14
83 1 14.35 5.46 12.34
84 1 13.05 4.57 14.6
85 1 10.46 0.91 14.71
86 1 10.46 5.51 14.69
87 1 13.1 1.71 10.15
88 1 13.07 1.81 14.61
89 1 9.15 4.61 16.94
90 1 9.2 4.52 12.44
91 1 10.45 5.49 10.18
92 1 10.49 0.82 10.16
93 1 14.39 0.79 12.41
94 1 14.36 0.88 16.87
95 1 14.33 5.4 16.89
96 1 9.17 1.85 16.96
97 1 1.3 9.11 12.45
98 1 5.28 11.83 10.1
99 1 6.59 12.74 12.34
100 1 5.3 11.92 14.65
101 1 2.59 8.19 14.71
102 1 2.69 12.79 14.6
103 1 5.2 9.07 10.2
104 1 5.17 9.16 14.66
105 1 1.38 11.89 16.85
106 1 1.38 11.87 12.35
107 1 2.71 12.84 10.14
108 1 2.56 8.25 10.16
109 1 6.49 8.14 12.46
110 1 6.46 8.24 16.91
111 1 6.61 12.83 16.89
112 1 1.3 9.13 16.96
113 1 9.09 9.19 12.41
114 1 13.13 11.9 10.14
115 1 14.41 12.74 12.44
116 1 13.1 11.84 14.69
117 1 10.38 8.27 14.66
118 1 10.53 12.86 14.64
119 1 12.99 9.14 10.15
120 1 13.02 9.08 14.7
121 1 9.23 11.96 16.9
122 1 9.23 11.95 12.39
123 1 10.51 12.77 10.09
124 1 10.38 8.25 10.16
125 1 14.29 8.22 12.41
126 1 14.31 8.16 16.96
127 1 14.44 12.83 16.89
128 1 9.09 9.21 16.91
129 2 0.46 1.48 3.37
130 2 1.33 2.71 3.37
131 2 5.68 4.81 1.86
132 2 5.67 4.81 0.35
133 2 6.13 5.1 4.1
134 2 6.56 6.34 3.34
135 2 4.38 4.84 5.6
136 2 5.7 4.83 6.36
137 2 2.17 1.18 4.88
138 2 3.49 1.17 5.63
139 2 2.23 5.15 6.35
140 2 2.65 6.39 5.59
141 2 5.65 1.43 1.86
142 2 5.23 2.67 1.1
143 2 5.23 2.69 5.61
144 2 5.65 1.45 6.37
145 2 1.78 4.88 8.61
146 2 1.33 3.65 7.85
147 2 1.78 4.85 4.11
148 2 1.78 4.85 2.6
149 2 3.52 5.14 1.1
150 2 2.64 6.37 1.11
151 2 3.49 1.15 1.11
152 2 2.17 1.16 1.87
153 2 6.09 1.14 4.12
154 2 6.53 14.6171 3.37
155 2 6.09 1.15 8.63
156 2 6.53 14.6371 7.86
157 2 7.43 5.14 7.86
158 2 6.53 6.36 7.86
159 2 1.77 1.51 7.13
160 2 0.46 1.51 7.89
161 2 9.16 2.71 3.37
162 2 8.28 1.48 3.37
163 2 13.06 3.59 1.12
164 2 13.5 4.82 0.36
165 2 13.94 5.12 2.61
166 2 15.25 5.14 3.36
167 2 13.52 4.82 4.86
168 2 12.21 4.84 5.62
169 2 11.31 1.17 5.63
170 2 10 1.18 4.88
171 2 10.47 6.39 5.62
172 2 10.05 5.15 4.86
173 2 12.18 1.46 1.11
174 2 13.49 1.45 1.86
175 2 13.05 2.69 5.61
176 2 13.48 1.45 6.37
177 2 9.61 4.88 7.11
178 2 9.16 3.65 7.88
179 2 8.3 4.84 3.36
180 2 9.61 4.85 2.61
181 2 10.04 5.17 0.35
182 2 11.35 5.14 1.11
183 2 10.02 1.16 0.36
184 2 10.02 1.16 1.88
185 2 13.91 1.14 4.12
186 2 14.35 14.6171 3.37
187 2 13.91 1.15 8.63
188 2 14.36 14.6371 7.86
189 2 13.94 5.14 7.11
190 2 15.26 5.16 7.86
191 2 8.28 1.51 7.89
192 2 9.59 1.51 7.13
193 2 1.75 8.83 4.12
194 2 1.33 10.07 3.36
195 2 4.39 12.19 1.1
196 2 5.25 10.94 1.11
197 2 7.43 12.49 3.36
198 2 6.12 12.48 2.61
199 2 5.68 12.17 4.85
200 2 5.68 12.18 6.37
201 2 2.17 8.54 6.37
202 2 3.49 8.52 5.61
203 2 2.64 13.74 5.61
204 2 3.52 12.51 5.61
205 2 4.35 8.81 1.13
206 2 5.66 8.81 0.36
207 2 5.23 10.04 5.63
208 2 5.65 8.8 4.88
209 2 1.78 12.24 7.11
210 2 1.34 11.01 7.88
211 2 0.48 12.2 3.35
212 2 1.79 12.21 4.11
213 2 2.23 12.49 1.85
214 2 2.65 13.72 1.09
215 2 2.19 8.52 1.88
216 2 2.2 8.52 0.36
217 2 7.38 8.49 3.39
218 2 6.07 8.48 2.63
219 2 6.07 8.5 7.13
220 2 7.38 8.51 7.89
221 2 6.12 12.49 8.61
222 2 7.43 12.51 7.85
223 2 0.46 8.86 7.86
224 2 1.77 8.86 8.62
225 2 9.57 8.85 4.13
226 2 9.57 8.84 2.61
227 2 12.21 12.19 1.1
228 2 13.08 10.94 1.11
229 2 13.95 12.48 2.6
230 2 13.95 12.48 4.11
231 2 13.52 12.18 6.36
232 2 12.21 12.19 5.6
233 2 11.31 8.52 5.61
234 2 10 8.54 6.37
235 2 10.47 13.74 5.62
236 2 10.05 12.51 4.86
237 2 13.47 8.8 1.87
238 2 13.47 8.81 0.36
239 2 13.48 8.8 4.88
240 2 13.05 10.04 5.63
241 2 9.6 12.22 8.62
242 2 9.6 12.22 7.11
243 2 9.16 10.99 3.37
244 2 9.61 12.22 2.61
245 2 10.48 13.72 1.13
246 2 10.05 12.49 0.35
247 2 11.3 8.53 1.12
248 2 10.43 7.29 1.11
249 2 15.2 8.51 3.37
250 2 14.34 7.26 3.37
251 2 14.36 7.28 7.88
252 2 13.91 8.52 7.13
253 2 15.26 12.51 7.85
254 2 13.94 12.49 8.61
255 2 9.15 10.09 7.86
256 2 9.57 8.85 8.62
257 2 1.77 1.49 11.66
258 2 0.46 1.49 12.42
259 2 5.68 4.81 10.9
260 2 5.67 4.81 9.38
261 2 6.56 6.34 12.38
262 2 6.13 5.1 13.14
263 2 4.39 4.85 14.65
264 2 5.25 3.61 14.65
265 2 2.19 1.18 13.9
266 2 2.19 1.18 15.42
267 2 2.23 5.15 15.39
268 2 2.65 6.39 14.63
269 2 4.36 1.44 10.15
270 2 5.24 2.67 10.15
271 2 4.35 1.48 14.65
272 2 5.66 1.47 15.41
273 2 1.78 4.88 17.65
274 2 1.33 3.65 16.89
275 2 1.78 4.87 13.14
276 2 1.34 3.64 12.39
277 2 2.21 5.16 10.89
278 2 3.52 5.14 10.13
279 2 2.19 1.18 9.41
280 2 2.63 14.6471 10.16
281 2 6.09 1.13 11.65
282 2 6.09 1.14 13.17
283 2 6.53 14.6371 16.9
284 2 6.09 1.15 17.67
285 2 7.43 5.16 16.9
286 2 6.12 5.14 16.15
287 2 0.46 1.51 16.89
288 2 1.77 1.51 17.66
289 2 8.28 1.48 12.41
290 2 9.16 2.71 12.4
291 2 13.5 4.81 9.38
292 2 13.5 4.81 10.9
293 2 15.25 5.14 12.39
294 2 13.94 5.13 13.14
295 2 13.51 4.84 15.39
296 2 13.06 3.61 14.64
297 2 10.46 14.6671 14.67
298 2 10.01 1.19 13.91
299 2 11.35 5.16 14.65
300 2 10.04 5.17 13.9
301 2 13.07 2.67 10.15
302 2 12.18 1.44 10.15
303 2 13.49 1.47 15.41
304 2 12.18 1.48 14.65
305 2 9.16 3.65 16.91
306 2 9.61 4.88 16.15
307 2 9.61 4.85 11.64
308 2 8.3 4.84 12.4
309 2 10.04 5.17 9.39
310 2 11.35 5.14 10.15
311 2 10.02 1.16 10.91
312 2 10.02 1.16 9.4
313 2 13.92 1.13 11.65
314 2 13.92 1.14 13.17
315 2 13.91 1.15 17.67
316 2 14.36 14.6371 16.9
317 2 14.36 6.36 16.9
318 2 15.25 5.14 16.9
319 2 8.28 1.51 16.93
320 2 9.59 1.51 16.17
321 2 1.75 8.83 11.66
322 2 1.33 10.07 12.41
323 2 5.7 12.16 10.89
324 2 4.38 12.17 10.13
325 2 6.13 12.46 13.14
326 2 6.56 13.7 12.38
327 2 4.39 12.21 14.65
328 2 5.25 10.96 14.65
329 2 3.49 8.52 14.67
330 2 2.17 8.53 13.91
331 2 2.65 13.74 14.63
332 2 2.23 12.5 15.39
333 2 5.22 10.02 10.17
334 2 5.65 8.79 9.4
335 2 5.65 8.81 13.9
336 2 5.65 8.82 15.42
337 2 0.48 12.22 16.89
338 2 1.79 12.22 17.65
339 2 0.48 12.2 12.39
340 2 1.79 12.21 13.14
341 2 2.23 12.52 9.38
342 2 2.23 12.51 10.89
343 2 2.61 7.29 10.15
344 2 3.48 8.53 10.16
345 2 7.38 8.49 12.42
346 2 6.07 8.48 11.66
347 2 6.52 7.28 16.91
348 2 7.37 8.53 16.91
349 2 6.14 12.5 17.65
350 2 6.13 12.5 16.14
351 2 1.75 8.84 16.16
352 2 1.33 10.09 16.92
353 2 9.57 8.85 13.16
354 2 9.57 8.84 11.65
355 2 13.08 10.94 10.15
356 2 12.21 12.19 10.14
357 2 14.37 13.7 12.41
358 2 13.95 12.46 11.65
359 2 12.21 12.19 14.66
360 2 13.52 12.17 13.9
361 2 11.3 8.55 14.66
362 2 10.43 7.31 14.66
363 2 10.05 12.53 15.4
364 2 10.05 12.52 13.89
365 2 13.47 8.81 9.39
366 2 13.47 8.8 10.91
367 2 13.48 8.8 13.91
368 2 13.05 10.04 14.67
369 2 9.19 11.01 16.9
370 2 8.31 12.24 16.9
371 2 8.31 12.22 12.39
372 2 9.19 10.99 12.4
373 2 10.48 13.72 10.13
374 2 10.05 12.49 10.88
375 2 10.43 7.29 10.15
376 2 11.3 8.53 10.16
377 2 15.2 8.51 12.41
378 2 14.34 7.26 12.4
379 2 15.2 8.51 16.93
380 2 13.89 8.5 16.17
381 2 13.96 12.5 17.65
382 2 13.95 12.5 16.14
383 2 9.57 8.86 16.15
384 2 9.56 8.86 17.67
ITEM: TIMESTEP
200
ITEM: NUMBER OF ATOMS
384
ITEM: BOX BOUNDS pp pp pp
2.4136573719089505e-01 1.5404311792809107e+01
2.3499875751976607e-01 1.4472146532480238e+01
3.2049711169290340e-01 1.7752539918307097e+01
ITEM: ATOMS id type x y z
1 1 1.38767 1.7611 3.30165
2 1 4.97861 4.43733 1.06567
3 1 6.3429 5.26124 3.2392
4 1 5.00903 4.37503 5.42822
5 1 2.55609 0.664289 5.4508
6 1 2.44382 5.29246 5.48678
7 1 5.01019 1.67989 0.984266
8 1 5.12816 1.58591 5.43483
9 1 1.26841 4.42224 7.62129
10 1 1.2824 4.40447 3.29832
11 1 2.48368 5.28719 1.17766
12 1 2.53434 0.856731 1.09287
13 1 6.17019 0.915797 3.21694
14 1 6.31081 0.748307 7.61952
15 1 6.2819 5.32009 7.56544
16 1 1.41201 1.694 7.62344
17 1 8.82303 1.83402 3.25906
18 1 12.5944 4.35903 1.02798
19 1 13.9447 5.30979 3.18342
20 1 12.7646 4.50058 5.42072
21 1 10.0712 0.849575 5.32907
22 1 10.1788 5.2095 5.49365
23 1 12.7507 1.66452 1.09612
24 1 12.7125 1.74369 5.39664
25 1 8.85501 4.21759 7.58519
26 1 8.91442 4.44346 3.23189
27 1 10.1751 5.28912 0.975403
28 1 10.2094 0.89466 1.08917
29 1 13.9895 0.727707 3.15217
30 1 13.989 0.851253 7.62257
31 1 13.9478 5.28175 7.60403
32 1 8.88435 1.58254 7.54799
33 1 1.32408 8.75873 3.26666
34 1 5.07665 11.4422 1.14468
35 1 6.3035 12.3796 3.25143
36 1 4.97514 11.5337 5.44582
37 1 2.48826 8.06427 5.47221
38 1 2.47726 12.3422 5.34713
39 1 5.11315 8.83749 1.14574
40 1 5.16222 8.93745 5.37413
41 1 1.2956 11.4954 7.53473
42 1 1.24509 11.458 3.15127
43 1 2.55937 12.4027 0.987438
44 1 2.529 7.89537 1.10424
45 1 6.28934 7.96459 3.31282
46 1 6.24611 7.92935 7.53502
47 1 6.29953 12.3561 7.52376
48 1 1.25801 8.91489 7.621
49 1 8.79325 8.8284 3.29582
50 1 12.7238 11.4438 1.04282
51 1 13.9081 12.3295 3.22301
52 1 12.7338 11.6544 5.43425
53 1 10.0688 7.94595 5.40462
54 1 10.1292 12.4068 5.38997
55 1 12.6978 8.81403 1.11257
56 1 12.5494 8.81186 5.26127
57 1 8.84672 11.5245 7.52942
58 1 8.90955 11.5047 3.22012
59 1 10.1492 12.4366 1.06725
60 1 10.126 7.97022 1.19483
61 1 13.9705 7.96132 3.22654
62 1 13.8535 8.00409 7.52532
63 1 14.0984 12.5145 7.65101
64 1 8.78594 8.77747 7.54902
65 1 1.28203 1.68437 11.9488
66 1 5.12162 4.4485 9.72713
67 1 6.35342 5.31294 11.8909
68 1 5.10321 4.37953 14.0347
69 1 2.62582 0.852529 14.2912
70 1 2.65263 5.35434 14.1084
71 1 5.17532 1.72952 9.84679
72 1 5.15349 1.67889 14.2148
73 1 1.28514 4.40443 16.3628
74 1 1.3636 4.39829 11.9929
75 1 2.57221 5.13641 9.69676
76 1 2.60445 0.953953 9.84701
77 1 6.30476 0.845725 11.9768
78 1 6.44562 0.82051 16.343
79 1 6.35896 5.28914 16.2915
80 1 1.25337 1.71696 16.3521
81 1 8.79368 1.69196 12.0011
82 1 12.7225 4.38072 9.83356
83 1 13.9458 5.22844 11.9544
84 1 12.7194 4.34843 14.0568
85 1 10.125 0.884588 14.2028
86 1 10.1256 5.18054 14.0399
87 1 12.6437 1.73478 9.76286
88 1 12.6552 1.77492 14.2039
89 1 8.8609 4.43496 16.3606
90 1 8.82716 4.43156 11.877
91 1 10.191 5.30368 9.6585
92 1 10.1116 0.866571 9.69324
93 1 13.9037 0.761407 11.9052
94 1 13.9569 0.875898 16.2985
95 1 13.9485 5.25538 16.2357
96 1 8.85919 1.79378 16.3283
97 1 1.23597 8.83597 11.935
98 1 5.06844 11.6195 9.75778
99 1 6.39684 12.3652 11.8931
100 1 5.18313 11.4521 14.1568
101 1 2.50201 7.99175 14.1564
102 1 2.60215 12.4433 14.0099
103 1 5.01019 8.8727 9.72059
104 1 5.05322 8.76621 14.2617
105 1 1.36429 11.4112 16.1832
106 1 1.30921 11.4591 11.956
107 1 2.50705 12.4958 9.75352
108 1 2.51392 7.94023 9.7342
109 1 6.15415 8.01668 11.9723
110 1 6.28636 7.97763 16.368
111 1 6.37053 12.3383 16.3305
112 1 1.24458 8.81867 16.3489
113 1 8.81486 8.73067 11.9944
114 1 12.6779 11.5571 9.78426
115 1 13.947 12.339 11.9804
116 1 12.7793 11.521 14.1189
117 1 10.0714 7.89351 14.2266
118 1 10.2334 12.433 14.2114
119 1 12.7032 8.82023 9.80557
120 1 12.6125 8.85343 14.1997
121 1 8.89109 11.5296 16.2954
122 1 8.89578 11.4892 11.9543
123 1 10.0928 12.4866 9.70838
124 1 10.1438 7.977 9.82291
125 1 13.7743 7.94849 12.0448
126 1 13.8973 7.93198 16.3119
127 1 14.0914 12.4058 16.3429
128 1 8.80301 8.83413 16.3625
129 2 0.454228 1.2901 3.32661
130 2 1.16312 2.62185 3.21848
131 2 5.38408 4.90596 1.84529
132 2 5.61653 4.78617 0.493056
133 2 5.76449 4.90156 4.05151
134 2 6.32887 6.28086 3.22744
135 2 3.90419 4.62967 5.41522
136 2 5.51371 4.79476 6.2881
137 2 2.05144 1.07156 4.76536
138 2 3.4538 0.999956 5.39112
139 2 1.96803 5.01149 6.40015
140 2 2.42231 6.35771 5.50924
141 2 5.37415 1.43158 1.91614
142 2 5.00043 2.7852 1.14687
143 2 5.11222 2.50167 5.3414
144 2 5.73764 1.26426 6.32965
145 2 1.85512 4.79061 8.43623
146 2 1.28977 3.56517 7.46317
147 2 1.69457 4.76385 3.96543
148 2 2.10021 4.52754 2.46946
149 2 3.45207 5.1578 0.963384
150 2 2.65359 6.22008 1.28193
151 2 3.44515 1.27022 1.15067
152 2 2.05743 1.14028 1.9267
153 2 5.7075 1.22033 4.14997
154 2 6.28302 14.0391 3.21153
155 2 5.76461 0.993292 8.57332
156 2 6.47059 13.998 7.76255
157 2 7.39923 4.98532 7.51871
158 2 6.24458 6.29087 7.62327
159 2 1.79028 1.38178 6.64106
160 2 0.499449 1.56076 7.52864
161 2 9.01206 2.71332 3.27899
162 2 7.81875 1.53221 3.17901
163 2 12.7757 3.37529 0.95069
164 2 13.009 4.73967 17.6524
165 2 13.3899 5.10324 2.4021
166 2 14.8596 4.88616 3.17836
167 2 13.0154 4.62712 4.59563
168 2 11.8011 4.59166 5.38884
169 2 10.9332 1.21732 5.38435
170 2 9.60293 1.30672 4.40519
171 2 10.0881 6.23871 5.21813
172 2 9.68949 4.98654 4.7312
173 2 11.863 1.53671 1.22996
174 2 13.2002 1.34326 2.05971
175 2 12.9444 2.63836 5.41042
176 2 13.08 1.48004 6.24803
177 2 9.14656 4.39103 6.59131
178 2 8.70955 3.33133 7.54277
179 2 7.89594 4.76474 3.08679
180 2 9.46995 4.99298 2.34522
181 2 9.65301 5.08547 17.5743
182 2 11.0201 4.92123 0.89699
183 2 9.77407 1.34291 17.6236
184 2 9.69212 1.24615 1.99763
185 2 13.46 1.00983 3.79919
186 2 13.7126 13.9278 3.08991
187 2 13.3671 1.18912 8.3961
188 2 13.834 14.1466 7.53605
189 2 13.7806 4.9236 6.7035
190 2 14.9043 4.92813 7.80212
191 2 7.88455 1.35961 7.54841
192 2 9.54197 1.44011 6.78848
193 2 1.76779 8.55805 4.17419
194 2 1.40433 9.8718 3.28055
195 2 4.02576 11.7621 1.11908
196 2 4.95043 10.3613 1.09515
197 2 7.3339 12.0444 3.16457
198 2 5.72932 12.1589 2.45687
199 2 5.62975 11.8005 4.75707
200 2 5.5316 11.8867 6.32191
201 2 2.09467 8.54419 6.2235
202 2 3.48376 8.26742 5.4627
203 2 2.38776 13.3159 5.36429
204 2 3.34811 12.0532 5.42152
205 2 4.29175 8.36762 1.24866
206 2 5.43066 8.68946 17.6828
207 2 5.09854 9.77426 5.32385
208 2 5.76283 8.54321 4.579
209 2 1.64061 11.7538 6.76096
210 2 1.34052 10.566 7.59162
211 2 0.428161 11.7133 3.28784
212 2 1.7923 11.8157 3.9019
213 2 2.00352 12.0496 1.653
214 2 2.64716 13.411 1.14751
215 2 1.71205 8.38536 1.80848
216 2 2.103 7.98709 17.7106
217 2 7.21675 8.30587 3.22467
218 2 5.86348 8.42366 2.56133
219 2 5.84234 8.43275 6.69752
220 2 7.11385 8.39167 7.52759
221 2 5.73886 11.9286 8.35116
222 2 7.24512 12.05 7.60741
223 2 0.243079 8.6313 7.47794
224 2 1.80535 8.47905 8.27595
225 2 9.38695 8.55926 4.05458
226 2 9.43644 8.54256 2.52576
227 2 11.8713 11.9384 1.01907
228 2 12.4446 10.4151 1.2415
229 2 13.4377 12.0045 2.42309
230 2 13.5559 11.9 4.20345
231 2 13.2823 12.0662 6.11044
232 2 11.7483 12.1054 5.28504
233 2 11.0314 8.34442 5.50546
234 2 9.58972 8.3255 6.30067
235 2 9.93701 13.3373 5.27382
236 2 9.57476 11.992 4.63499
237 2 13.3266 8.5081 1.83919
238 2 13.1131 8.56764 17.6155
239 2 13.3122 8.55083 4.51042
240 2 12.6423 9.86355 5.30464
241 2 9.15227 12.1635 8.1961
242 2 9.30452 11.7115 6.67724
243 2 8.64296 10.4972 3.00242
244 2 9.17772 11.6822 2.42192
245 2 10.2044 13.5343 0.840381
246 2 9.75229 12.1269 17.677
247 2 11.1 8.30132 1.09875
248 2 10.183 6.95271 0.986767
249 2 15.06 8.19273 3.27349
250 2 14.0332 6.87096 3.09347
251 2 13.6556 7.06642 7.2591
252 2 13.3903 8.49261 6.82654
253 2 14.8774 12.2609 7.44123
254 2 13.7174 12.2309 8.41711
255 2 8.76566 9.81585 7.51065
256 2 9.18125 8.71318 8.44279
257 2 1.76403 1.41154 11.2166
258 2 0.34515 1.31186 11.9532
259 2 5.59032 4.75381 10.6113
260 2 5.3871 4.83751 8.96246
261 2 6.18531 6.26723 11.9458
262 2 5.92635 4.8999 12.8519
263 2 4.13652 4.52125 13.9014
264 2 5.15777 3.37899 14.0822
265 2 2.27183 1.36611 13.4467
266 2 2.00838 1.06961 14.9314
267 2 2.1071 5.22052 14.9383
268 2 2.67625 6.26532 14.1341
269 2 4.31827 1.43379 9.62318
270 2 5.10797 2.74262 9.83522
271 2 4.16822 1.23148 14.233
272 2 5.47379 1.27885 15.099
273 2 1.84187 4.70986 17.1683
274 2 1.24247 3.34836 16.3546
275 2 1.99679 4.7411 12.7215
276 2 1.43631 3.35155 11.8982
277 2 2.12699 4.91344 10.5277
278 2 3.52952 4.79071 9.61195
279 2 2.04312 0.990402 8.93189
280 2 2.52242 14.2191 9.86407
281 2 5.68823 1.44005 11.2105
282 2 5.89507 1.14283 12.8205
283 2 6.5447 14.0711 16.3618
284 2 5.91041 1.12652 17.038
285 2 7.15151 4.82247 16.2103
286 2 5.99961 5.07621 15.2441
287 2 0.260341 1.37839 16.6463
288 2 1.87382 1.54074 16.9693
289 2 7.97721 1.29927 11.941
290 2 8.92712 2.53474 11.6827
291 2 13.3254 4.62782 9.00047
292 2 13.1884 4.83171 10.6548
293 2 14.9071 5.20629 11.9339
294 2 13.7995 4.67309 12.8192
295 2 13.0469 4.68861 15.0845
296 2 12.7706 3.43899 14.1461
297 2 10.3584 14.1392 14.0809
298 2 9.57179 1.29132 13.2853
299 2 11.091 5.02321 14.0549
300 2 9.78628 4.96151 13.1114
301 2 12.5019 2.758 9.83729
302 2 11.6051 1.40543 9.77083
303 2 13.1115 1.38806 14.8556
304 2 11.8091 1.43915 14.0741
305 2 9.01761 3.47532 16.3946
306 2 9.1338 4.85561 15.527
307 2 9.30078 4.71866 10.9405
308 2 7.79525 4.87093 12.004
309 2 10.0322 5.09761 8.78423
310 2 11.0688 4.8545 9.9587
311 2 9.77361 1.32158 10.551
312 2 9.72075 1.27404 8.93632
313 2 13.5015 1.22338 11.2668
314 2 13.383 1.13621 12.8344
315 2 13.608 1.09342 17.3
316 2 14.3327 14.0624 16.4437
317 2 13.9814 6.24248 16.1
318 2 14.8854 5.11568 16.2754
319 2 7.88557 1.61429 16.4106
320 2 9.34865 1.21735 15.5953
321 2 1.81127 8.34017 11.211
322 2 1.30144 9.79031 11.9276
323 2 5.47093 11.985 10.7073
324 2 4.17967 11.9793 9.74261
325 2 5.84762 12.1215 12.8078
326 2 6.38812 13.206 11.9565
327 2 4.28094 11.7717 14.2812
328 2 5.08805 10.403 14.3533
329 2 3.38497 8.27938 14.0964
330 2 2.12452 8.35528 13.4779
331 2 2.46421 13.592 14.1804
332 2 2.01283 12.2237 14.9025
333 2 5.10071 9.86049 9.81057
334 2 5.57009 8.49765 8.97047
335 2 5.48277 8.4448 13.2342
336 2 5.76923 8.52027 15.0254
337 2 0.464438 11.8098 15.9326
338 2 1.75345 12.2022 16.8533
339 2 0.403263 11.796 11.8534
340 2 1.86879 11.8319 12.991
341 2 2.00711 12.0854 8.94622
342 2 2.24675 12.3244 10.6096
343 2 2.78457 7.12854 9.6688
344 2 3.47205 8.44301 9.76439
345 2 6.97959 8.42186 11.9003
346 2 5.62838 8.2436 11.161
347 2 6.45048 6.75334 16.3178
348 2 7.14954 8.43216 16.5821
349 2 5.87951 11.9128 17.2514
350 2 5.85393 11.9419 15.5047
351 2 1.80897 8.48671 15.4814
352 2 1.4771 9.91153 16.3445
353 2 9.07244 8.42229 12.7333
354 2 9.58225 8.31527 11.3029
355 2 12.5516 10.5816 10.0042
356 2 11.6589 11.5893 9.7671
357 2 13.9553 13.449 11.9601
358 2 13.5546 12.1793 11.0863
359 2 11.8461 11.9252 14.2946
360 2 13.2777 11.7163 13.3147
361 2 10.9808 8.33438 14.3543
362 2 10.0577 6.95442 14.3877
363 2 9.64089 12.14 14.9232
364 2 9.67154 12.2198 13.3333
365 2 13.0922 8.49486 9.03833
366 2 13.1717 8.51737 10.6178
367 2 12.8644 8.64537 13.3291
368 2 12.6163 9.84348 14.1788
369 2 8.71863 10.6662 16.1765
370 2 7.99207 11.8085 16.2987
371 2 8.10731 11.8787 12.1519
372 2 8.89719 10.4684 12.0427
373 2 10.0106 13.4528 9.75396
374 2 9.83618 12.1682 10.5729
375 2 10.1445 7.10498 9.77894
376 2 11.1232 8.218 9.74657
377 2 14.757 8.30913 11.9084
378 2 13.9199 6.93043 11.8761
379 2 14.8227 8.07069 16.2966
380 2 13.5208 8.31835 15.4721
381 2 13.508 12.0945 17.1373
382 2 13.4133 12.1854 15.5562
383 2 9.18381 8.65015 15.5428
384 2 9.38151 8.40817 17.191
ITEM: TIMESTEP
400
ITEM: NUMBER OF ATOMS
384
ITEM: BOX BOUNDS pp pp pp
4.6654049692420863e-01 1.5179137033075790e+01
4.3348055518130035e-01 1.4273664734818711e+01
6.2313843955395143e-01 1.7449898590446061e+01
ITEM: ATOMS id type x y z
1 1 1.3808 1.6967 3.26726
2 1 4.99268 4.49688 1.04484
3 1 6.18998 5.12072 3.25498
4 1 4.80696 4.14231 5.13242
5 1 2.54257 0.536947 5.27468
6 1 2.46964 5.17491 5.2633
7 1 4.86621 1.76751 1.1749
8 1 4.97581 1.60874 5.31561
9 1 1.18699 4.35917 7.41487
10 1 1.24235 4.35234 3.09184
11 1 2.50433 5.06098 1.08414
12 1 2.49039 0.935874 1.11419
13 1 6.15381 0.847853 3.21287
14 1 6.28244 0.830064 7.34453
15 1 6.18202 5.12583 7.16816
16 1 1.43024 1.71616 7.27385
17 1 8.54483 1.77143 3.16415
18 1 12.2671 4.12604 0.8485
19 1 13.3952 5.02212 2.99829
20 1 12.2133 4.09272 5.11025
21 1 9.89354 0.70533 5.10338
22 1 9.85643 5.10496 5.21117
23 1 12.3343 1.54116 1.00531
24 1 12.3695 1.52249 5.25046
25 1 8.56978 4.13668 7.35467
26 1 8.61074 4.4024 3.06478
27 1 9.84862 5.21663 0.829171
28 1 9.76725 0.850046 1.12783
29 1 13.6504 0.943745 3.08763
30 1 13.6397 0.808178 7.46984
31 1 13.5023 5.18168 7.19017
32 1 8.76604 1.43827 7.31464
33 1 1.28361 8.54146 3.14493
34 1 4.97076 11.1334 1.05682
35 1 6.23477 12.0262 3.04008
36 1 4.90198 11.3052 5.13336
37 1 2.46525 7.7665 5.33287
38 1 2.40843 11.8577 5.24603
39 1 4.77242 8.58412 0.99811
40 1 4.88452 8.59499 5.15969
41 1 1.23688 11.098 7.38263
42 1 1.21702 11.1892 3.0862
43 1 2.57002 12.1754 1.0982
44 1 2.39927 7.53802 0.997874
45 1 6.25922 7.71336 3.04036
46 1 6.11218 7.79797 7.32076
47 1 6.03146 12.001 7.35995
48 1 1.20407 8.46263 7.34201
49 1 8.67909 8.59923 3.11625
50 1 12.3118 11.2039 1.06447
51 1 13.4763 12.2135 3.12646
52 1 12.3034 11.3571 5.29693
53 1 9.9579 7.68605 5.31009
54 1 9.78101 11.9897 5.27294
55 1 12.4034 8.6316 1.07557
56 1 12.2127 8.76667 5.10742
57 1 8.45276 11.2088 7.31364
58 1 8.74207 11.2157 3.11364
59 1 9.95014 12.1 1.05702
60 1 9.87435 7.71438 1.00112
61 1 13.531 7.67471 3.13054
62 1 13.4233 7.85881 7.27685
63 1 13.475 12.113 7.5227
64 1 8.48283 8.65464 7.30946
65 1 1.4357 1.59748 11.5763
66 1 4.96792 4.24861 9.39724
67 1 6.21347 5.19772 11.5301
68 1 5.02365 4.40561 13.5866
69 1 2.53576 0.798562 13.6894
70 1 2.45372 5.18865 13.7394
71 1 5.02181 1.65305 9.60031
72 1 4.96183 1.85523 13.805
73 1 1.14234 4.2914 15.6969
74 1 1.35013 4.26417 11.6728
75 1 2.50372 5.18295 9.56028
76 1 2.57069 0.817978 9.44721
77 1 6.18423 0.785768 11.795
78 1 6.07579 0.740427 15.9146
79 1 6.2727 5.1982 15.7777
80 1 1.24538 1.6801 15.7513
81 1 8.53756 1.7588 11.552
82 1 12.3467 4.3069 9.38889
83 1 13.5499 5.09527 11.6479
84 1 12.2051 4.14524 13.5689
85 1 9.75282 0.782138 13.6303
86 1 9.74766 5.04652 13.4747
87 1 12.2339 1.71454 9.52685
88 1 12.2498 1.53699 13.7944
89 1 8.71066 4.09628 15.6769
90 1 8.55305 4.28525 11.402
91 1 9.85802 5.18269 9.24353
92 1 9.93412 0.716013 9.51606
93 1 13.6112 0.880986 11.5636
94 1 13.55 0.658927 15.9147
95 1 13.4087 5.156 15.5691
96 1 8.62125 1.62003 15.7103
97 1 1.19136 8.70627 11.6228
98 1 4.858 11.1694 9.52404
99 1 6.16541 11.9747 11.6297
100 1 4.83583 11.254 13.7359
101 1 2.41801 7.81196 13.6316
102 1 2.42291 11.9453 13.5906
103 1 4.72562 8.63147 9.41855
104 1 4.76307 8.64632 13.7523
105 1 1.35213 11.0361 15.8286
106 1 1.20124 11.3045 11.544
107 1 2.45406 12.1141 9.41537
108 1 2.38704 7.67123 9.42131
109 1 6.0912 7.92138 11.5216
110 1 6.13269 7.75198 15.7523
111 1 6.26398 12.0608 15.8119
112 1 1.25878 8.60121 15.7398
113 1 8.70564 8.60085 11.4894
114 1 12.1665 11.1839 9.45376
115 1 13.4972 12.2081 11.5144
116 1 12.1507 11.2238 13.544
117 1 9.7974 7.66798 13.7158
118 1 9.78347 12.0346 13.485
119 1 12.2532 8.60358 9.51258
120 1 12.2043 8.59294 13.5809
121 1 8.66286 11.2816 15.8511
122 1 8.55495 11.0887 11.528
123 1 9.72047 11.9926 9.45529
124 1 9.84369 7.70451 9.37276
125 1 13.5116 7.65389 11.5594
126 1 13.4583 7.7468 15.7155
127 1 13.5929 11.8725 15.7893
128 1 8.57587 8.582 15.7411
129 2 15.0896 1.41637 3.32059
130 2 1.37106 2.75974 3.25045
131 2 5.40726 4.44642 1.90351
132 2 5.4984 4.76554 17.1215
133 2 5.6784 4.69873 4.05997
134 2 6.0326 6.14737 3.20602
135 2 3.75947 4.5754 5.23434
136 2 5.1642 4.60721 5.95455
137 2 2.26075 1.11315 4.48091
138 2 3.51149 0.747243 5.15543
139 2 1.80416 4.86078 6.06539
140 2 2.39204 6.09004 5.05536
141 2 5.33812 1.31133 1.86731
142 2 4.87431 2.85487 1.07061
143 2 4.80157 2.6394 5.35803
144 2 5.47779 1.48084 6.23702
145 2 1.8127 4.64194 8.2154
146 2 1.29805 3.3964 7.40418
147 2 1.69229 4.77857 3.71962
148 2 1.62669 4.62068 2.15019
149 2 3.43094 4.77126 1.26564
150 2 2.62826 6.02774 0.905619
151 2 3.42003 1.3616 1.13122
152 2 2.08953 1.16993 1.94769
153 2 5.68032 1.2217 4.08755
154 2 6.19941 13.6536 3.26049
155 2 5.60819 1.23376 8.20382
156 2 6.03162 13.6701 7.31855
157 2 7.02735 4.96257 7.38899
158 2 6.15656 6.21035 7.29403
159 2 1.81255 1.41757 6.47641
160 2 0.472066 1.56407 7.40589
161 2 8.33899 2.66411 3.18235
162 2 7.62052 1.39852 3.07913
163 2 12.0743 3.09796 0.697466
164 2 12.6823 4.6414 16.7637
165 2 12.8828 4.72348 2.14016
166 2 14.3384 4.83716 2.86318
167 2 12.6982 4.38716 4.20843
168 2 11.3296 4.51671 5.19472
169 2 10.7903 0.715837 5.48373
170 2 9.56718 1.19122 4.44678
171 2 9.81606 6.0129 5.25244
172 2 9.20115 4.75478 4.19159
173 2 11.2254 1.29717 1.08189
174 2 12.7246 1.5278 1.90597
175 2 12.371 2.47052 5.33717
176 2 13.1354 1.23251 6.03319
177 2 9.1438 4.39066 6.39014
178 2 8.67527 2.99892 7.28225
179 2 7.61733 4.55742 3.02125
180 2 8.94888 4.69015 2.22137
181 2 9.67118 4.76832 16.7412
182 2 10.6791 4.72175 0.845625
183 2 9.24003 1.22176 17.3723
184 2 9.42277 1.26434 1.93558
185 2 12.9416 1.11682 3.91261
186 2 13.5726 13.7263 3.23497
187 2 13.0023 1.15142 8.22481
188 2 13.4891 13.5017 7.76966
189 2 13.1365 4.65807 6.53027
190 2 14.3684 4.97975 7.35355
191 2 7.69524 1.38098 7.40696
192 2 9.18999 1.2637 6.40654
193 2 1.72883 8.47232 3.99346
194 2 1.48765 9.56954 3.02778
195 2 3.91674 11.5124 0.983271
196 2 4.88065 10.1234 1.13907
197 2 7.16683 11.6804 3.05155
198 2 5.80817 11.5631 2.21295
199 2 5.50868 11.5956 4.4789
200 2 5.33196 11.534 6.05609
201 2 1.74789 8.03061 5.96507
202 2 3.3926 8.15795 5.33911
203 2 2.38285 12.8298 5.39045
204 2 3.3024 11.49 5.08057
205 2 3.97129 8.28712 1.13328
206 2 5.19804 8.31797 17.0326
207 2 4.69842 9.64127 5.07249
208 2 5.35998 8.38056 4.21566
209 2 1.72423 11.2611 6.47248
210 2 1.05808 10.2243 7.40046
211 2 14.9906 11.5651 3.27281
212 2 1.77287 11.4019 3.81413
213 2 1.98825 12.0529 1.91635
214 2 2.6338 13.1207 0.912883
215 2 1.79234 7.95666 1.65693
216 2 2.00925 7.9676 17.0157
217 2 7.15443 7.91154 3.11823
218 2 5.57535 7.89476 2.237
219 2 5.6436 8.12914 6.16358
220 2 7.17717 8.08445 7.24374
221 2 5.67356 11.8302 8.19322
222 2 6.90287 11.7525 7.33723
223 2 14.9478 8.21076 7.3507
224 2 1.54569 8.12457 8.30279
225 2 8.99556 8.2444 3.99375
226 2 9.29007 8.3036 2.29646
227 2 11.3202 11.6103 0.91457
228 2 12.2009 10.2118 1.0234
229 2 12.915 11.8802 2.36176
230 2 13.1745 11.9092 3.90996
231 2 12.8502 11.8339 5.99408
232 2 11.1615 11.5668 5.32553
233 2 10.7636 8.16148 5.25694
234 2 9.36991 7.92865 6.17894
235 2 9.83412 13.0207 5.21402
236 2 9.51029 11.5865 4.38008
237 2 13.04 8.44091 2.03815
238 2 12.9442 8.45659 17.1303
239 2 12.5159 8.53058 4.32578
240 2 12.1741 9.90016 5.20077
241 2 8.8146 11.7226 7.97807
242 2 9.05564 11.4379 6.45966
243 2 8.7602 10.3048 3.10918
244 2 9.19292 11.5729 2.24616
245 2 10.0346 13.1216 1.01702
246 2 9.59549 11.6689 17.0212
247 2 10.7396 8.02893 1.17778
248 2 9.84071 6.48318 0.819289
249 2 14.5363 7.92034 3.1121
250 2 13.4544 6.63784 3.16883
251 2 13.1397 6.84153 7.16662
252 2 13.008 8.12354 6.4336
253 2 14.4454 11.7022 7.2948
254 2 13.002 11.7217 8.19076
255 2 8.61248 9.60157 7.59917
256 2 8.92122 8.18967 8.08959
257 2 1.91391 1.27779 10.6174
258 2 15.074 1.37849 11.5482
259 2 5.55279 4.4082 10.1689
260 2 5.46676 4.70568 8.55452
261 2 5.96679 6.14364 11.516
262 2 5.66753 4.94614 12.2309
263 2 4.01732 4.81813 13.6753
264 2 4.66336 3.45897 13.6025
265 2 2.08835 1.11672 12.8523
266 2 2.05297 1.24394 14.475
267 2 2.0547 4.85999 14.5805
268 2 2.47718 6.20146 13.7367
269 2 4.10874 1.39976 9.57435
270 2 4.87888 2.60132 9.39411
271 2 4.03749 1.50841 13.8334
272 2 5.47381 1.5653 14.5824
273 2 1.69653 4.50212 16.4532
274 2 1.09662 3.18604 15.6457
275 2 1.8847 4.71148 12.6285
276 2 1.33683 3.14291 11.6745
277 2 2.16989 4.86728 10.4371
278 2 3.53257 4.96004 9.60696
279 2 2.35739 1.04769 8.4162
280 2 2.57055 13.735 9.27555
281 2 5.68194 0.882828 11.0133
282 2 5.8121 1.27362 12.5788
283 2 6.01078 13.4925 15.788
284 2 5.46502 1.42361 16.5688
285 2 7.2915 4.92872 15.8561
286 2 5.86028 4.79327 14.9832
287 2 0.50837 1.12641 15.8869
288 2 1.65855 1.36348 16.8155
289 2 7.60629 1.45125 11.3268
290 2 8.67859 2.58803 11.467
291 2 12.9125 4.61764 8.60269
292 2 12.839 4.70713 10.3505
293 2 14.4489 4.77344 11.6055
294 2 12.9419 4.87353 12.2404
295 2 12.8496 4.63063 14.3144
296 2 12.295 3.16052 13.6638
297 2 9.57355 13.6022 13.717
298 2 9.148 1.27794 12.8438
299 2 10.6499 4.65651 13.5157
300 2 9.14412 4.7165 12.6076
301 2 12.3366 2.63821 9.57448
302 2 11.3063 1.36369 9.50308
303 2 12.4869 1.30365 14.5829
304 2 11.3006 1.21321 13.7288
305 2 8.86933 3.13694 15.7145
306 2 8.93778 4.49123 14.7589
307 2 8.99769 4.59574 10.58
308 2 7.62847 4.64788 11.2403
309 2 9.47183 4.66503 8.51827
310 2 10.8511 4.75435 9.35437
311 2 9.45103 1.15943 10.3976
312 2 9.37063 0.956412 8.79045
313 2 13.1365 0.975312 10.8116
314 2 13.1008 1.12406 12.3208
315 2 13.1478 1.10262 16.7144
316 2 13.3867 13.4573 16.0395
317 2 13.2484 6.12313 15.2228
318 2 14.4315 4.91976 15.6125
319 2 7.70401 1.38348 15.6994
320 2 9.29809 1.21735 14.7604
321 2 1.60984 8.19843 10.6609
322 2 1.17504 9.90929 11.6013
323 2 5.29003 11.547 10.5177
324 2 3.99168 11.5854 9.41604
325 2 5.4762 11.5826 12.4068
326 2 6.00151 12.9374 11.5554
327 2 3.77147 11.6094 13.7808
328 2 4.76501 10.2973 13.7007
329 2 3.40401 8.34782 13.641