ITEM: TIMESTEP
0
ITEM: NUMBER OF ATOMS
384
ITEM: BOX BOUNDS pp pp pp
-3.1180958401302572e-01 1.5311809584013066e+01
-3.1180958401302572e-01 1.5311809584013066e+01
-3.1180958401302572e-01 1.5311809584013066e+01
ITEM: ATOMS id type x y z
1 1 4.57679 5.50123 13.6944
2 1 14.8875 3.66367 14.1079
3 1 8.20115 10.8513 3.91518
4 1 1.55859 4.11103 4.68534
5 1 14.0046 11.0534 10.4291
6 1 10.1562 -0.0244194 -0.0179537
7 1 13.1461 9.78511 5.92123
8 1 3.48566 13.6848 7.87681
9 1 3.32305 6.30373 3.20589
10 1 5.30735 8.37688 2.36991
11 1 13.7801 6.32188 1.70807
12 1 0.692367 10.1945 14.1186
13 1 15.0627 5.43363 4.6639
14 1 9.98456 5.97612 7.92121
15 1 12.4056 7.19481 3.96576
16 1 9.83562 2.64919 6.79506
17 1 4.60459 4.17249 11.4106
18 1 7.55062 10.3381 11.1669
19 1 8.27543 1.89543 14.4455
20 1 5.83253 14.0038 0.549654
21 1 -0.277952 13.5963 10.2649
22 1 12.6457 2.09652 6.28487
23 1 10.7129 7.40871 14.2399
24 1 2.2119 7.88472 6.40809
25 1 10.4542 9.69036 5.97773
26 1 -0.282536 8.22967 4.81222
27 1 1.6652 11.2607 4.20606
28 1 6.17365 -0.094545 10.725
29 1 12.1932 8.4542 0.381712
30 1 2.29814 6.67565 12.652
31 1 3.74006 5.65533 5.77839
32 1 7.64075 12.3667 7.75101
33 1 2.57949 3.81144 2.08856
34 1 3.31976 13.3432 0.0677147
35 1 -0.0967938 5.37115 7.46928
36 1 11.1426 14.5448 7.59235
37 1 1.26174 14.8074 2.57217
38 1 6.41618 0.335516 13.3898
39 1 0.207637 9.92258 2.18818
40 1 12.6731 13.1901 12.8323
41 1 1.29363 11.9761 7.9846
42 1 13.2286 14.8362 0.439531
43 1 -0.123887 15.1905 5.01064
44 1 8.80795 12.7708 12.0788
45 1 12.4172 6.75949 6.79319
46 1 9.49869 10.6014 8.40823
47 1 10.544 10.9934 13.3575
48 1 8.99001 12.8372 5.44675
49 1 4.04829 1.51716 14.6149
50 1 6.69928 13.1999 13.7041
51 1 4.43379 6.10378 9.26553
52 1 11.4216 -0.0969869 13.0672
53 1 8.10878 14.4288 3.40524
54 1 4.3962 2.37166 3.28729
55 1 12.1316 11.4523 8.45349
56 1 8.7458 10.8517 -0.213292
57 1 1.53862 1.7361 8.48855
58 1 8.69585 5.89847 11.616
59 1 1.22107 9.19196 8.49846
60 1 10.635 10.5731 3.14594
61 1 11.4957 4.51089 15.2148
62 1 10.9209 6.7156 10.446
63 1 4.94638 10.4223 10.3546
64 1 7.94749 8.55464 1.09697
65 1 14.5919 7.80968 8.4877
66 1 5.26248 14.7619 3.62401
67 1 5.62202 2.26942 6.97039
68 1 1.29568 -0.0251437 10.348
69 1 11.6689 12.7598 1.5126
70 1 8.10674 4.34492 9.29769
71 1 15.2574 12.5827 5.71394
72 1 5.13758 11.4238 7.95676
73 1 0.807368 7.59384 14.5622
74 1 1.07308 4.35508 11.6836
75 1 -0.103901 0.899318 12.6958
76 1 12.4336 12.7126 5.99741
77 1 6.5124 0.898083 1.44852
78 1 5.22926 7.74021 7.34722
79 1 4.69818 3.85809 0.25821
80 1 14.6318 1.53081 0.260033
81 1 8.7843 1.26425 2.88569
82 1 10.1715 2.86217 10.2074
83 1 1.97586 4.56417 8.94346
84 1 12.6683 15.2799 4.82665
85 1 10.1623 4.44247 4.67024
86 1 8.26116 6.29332 15.2182
87 1 2.75694 2.33071 12.3211
88 1 10.1168 15.0402 10.6766
89 1 0.0214213 11.8389 0.424274
90 1 9.92368 3.73613 12.9889
91 1 7.93039 3.8304 3.09944
92 1 3.45334 12.7245 2.72154
93 1 13.7442 3.34545 8.32257
94 1 1.06378 7.50528 1.70711
95 1 13.5608 9.51663 12.896
96 1 6.16563 2.34739 9.6158
97 1 6.00658 4.12469 4.96415
98 1 13.0409 2.11594 12.6389
99 1 9.44842 7.22402 5.61094
100 1 3.08802 8.31472 10.412
101 1 4.27645 12.564 12.0172
102 1 0.247817 12.7339 12.6695
103 1 6.92237 8.32243 4.80264
104 1 10.2096 9.4039 11.0142
105 1 8.10819 14.6608 9.11245
106 1 0.724807 14.5893 14.8093
107 1 7.38606 3.87893 0.612739
108 1 13.59 6.17467 11.3541
109 1 6.57455 9.82429 14.0409
110 1 6.72525 7.05567 13.1783
111 1 3.66994 10.3273 5.96103
112 1 1.66543 1.60839 5.77048
113 1 9.05834 13.0173 1.11863
114 1 4.11235 0.213829 6.02437
115 1 10.3679 8.11545 2.36753
116 1 3.8208 14.5044 10.4834
117 1 6.27696 11.8524 2.07137
118 1 3.1417 11.1769 14.1451
119 1 12.971 3.21476 1.56998
120 1 12.4061 13.5738 10.1924
121 1 14.0948 6.56232 13.8874
122 1 11.4172 0.689063 2.37021
123 1 1.65778 1.52802 1.12949
124 1 7.74882 0.714644 6.86752
125 1 13.0368 10.8806 0.0461404
126 1 14.1536 3.59273 10.8941
127 1 12.9937 3.74289 4.44237
128 1 4.93288 10.2326 0.481908
129 2 4.52916 4.87676 12.9369
130 2 4.69703 5.06241 14.547
131 2 14.6886 4.58995 14.3163
132 2 0.0945933 3.63697 13.6264
133 2 7.74221 10.0755 4.24889
134 2 8.99342 10.7228 3.34745
135 2 0.788771 4.72927 4.53377
136 2 1.81069 3.95163 3.77685
137 2 14.4008 11.9252 10.4575
138 2 13.9069 10.7269 11.3647
139 2 10.6725 0.201823 0.765773
140 2 9.47367 0.652849 -0.0632908
141 2 13.5922 9.97565 6.76473
142 2 13.2152 10.5455 5.32572
143 2 3.67781 14.0964 8.7488
144 2 3.53939 14.3835 7.27865
145 2 3.09567 5.45978 2.78243
146 2 3.60518 6.19337 4.09913
147 2 5.08995 9.05489 1.76222
148 2 4.54185 7.79795 2.5309
149 2 13.4381 6.67871 2.59019
150 2 14.7355 6.25337 1.79471
151 2 0.77524 9.18308 14.2443
152 2 0.388115 10.6288 14.9234
153 2 14.1894 4.91997 4.56536
154 2 14.9228 6.4107 4.60147
155 2 10.8762 5.93786 7.61697
156 2 9.58879 6.53361 7.20672
157 2 12.1014 7.06547 4.8105
158 2 11.5829 7.27566 3.48345
159 2 9.70669 3.06202 7.62541
160 2 9.96186 3.35305 6.0781
161 2 3.89127 3.51534 11.556
162 2 5.31618 3.63484 11.0911
163 2 8.36256 9.80951 10.99
164 2 7.91946 11.2623 11.3115
165 2 7.80256 2.56448 14.9346
166 2 7.58248 1.21916 14.1315
167 2 6.10462 13.5421 -0.242407
168 2 4.85977 13.825 0.528199
169 2 14.4101 13.8153 10.1623
170 2 -0.0704958 13.4422 11.1966
171 2 11.7088 2.1063 6.54679
172 2 12.6961 1.18401 5.89058
173 2 10.9921 7.5299 13.3514
174 2 11.2636 8.01166 14.7268
175 2 1.57728 7.89927 5.7134
176 2 1.87051 8.36741 7.16573
177 2 11.4302 9.71213 6.20698
178 2 10.3486 10.1292 5.1128
179 2 14.4149 8.445 5.04536
180 2 0.00164071 8.8165 4.03796
181 2 1.02838 11.8189 4.67407
182 2 2.36173 10.8675 4.79517
183 2 6.32838 0.734699 10.265
184 2 5.21972 -0.301306 10.6492
185 2 12.568 9.37229 0.310345
186 2 12.8634 7.95827 0.824663
187 2 2.56428 7.41349 12.0109
188 2 3.14156 6.4193 13.0935
189 2 3.16723 6.41343 5.9805
190 2 3.10221 4.98312 5.63197
191 2 7.73547 13.1577 8.33842
192 2 8.06104 12.6116 6.87934
193 2 1.75422 3.38105 1.7562
194 2 3.25148 3.1727 2.47226
195 2 3.15037 12.6412 14.9757
196 2 3.16776 12.9566 0.983888
197 2 0.0720948 5.37286 6.52711
198 2 -0.245356 6.34024 7.61737
199 2 11.6512 14.8569 8.35832
200 2 11.802 13.9131 7.23812
201 2 2.07792 14.3411 2.56175
202 2 1.50629 0.044002 2.08403
203 2 6.3968 14.9261 13.4491
204 2 6.20534 0.425411 12.4267
205 2 0.660795 9.1318 1.85703
206 2 0.694078 10.391 2.87312
207 2 12.3708 14.0972 13.0916
208 2 12.1841 12.5232 13.366
209 2 2.09163 12.5603 7.87369
210 2 0.901668 12.2269 8.80367
211 2 13.6981 0.109016 0.335681
212 2 13.4443 14.3386 15.279
213 2 14.5376 15.2076 4.93591
214 2 0.228484 14.9795 4.13145
215 2 9.24837 13.4527 11.622
216 2 9.52013 12.2417 12.5392
217 2 12.875 7.30125 7.44426
218 2 13.1287 6.09272 6.70831
219 2 8.70364 11.2231 8.31889
220 2 9.67729 10.2938 7.51515
221 2 10.4955 10.2933 12.7118
222 2 10.0325 10.7711 14.1408
223 2 9.87115 13.0955 5.5737
224 2 8.95145 12.0108 4.93614
225 2 4.74251 0.928236 14.2575
226 2 3.48888 1.81195 13.8977
227 2 7.56401 13.1017 13.1985
228 2 6.02622 12.6782 13.2435
229 2 3.65548 5.64787 8.88705
230 2 4.53028 5.65688 10.1121
231 2 10.7483 -0.0654962 13.7661
232 2 11.7812 0.808853 13.0779
233 2 8.36482 -0.291862 3.46612
234 2 8.34757 14.0066 4.25098
235 2 5.1094 1.81781 2.95108
236 2 4.6411 2.96006 4.03817
237 2 12.5339 11.0417 9.22128
238 2 11.1841 11.2095 8.49369
239 2 8.60742 10.312 0.576946
240 2 8.69537 11.7883 0.0583599
241 2 1.42282 1.68337 7.50469
242 2 1.60998 2.65673 8.73322
243 2 8.87953 5.11923 12.1645
244 2 8.03029 6.40716 12.1505
245 2 1.95332 8.95172 9.16853
246 2 1.28006 10.1574 8.3047
247 2 11.2632 11.2403 2.79611
248 2 10.7957 9.70539 2.72449
249 2 11.5653 5.40273 -0.288322
250 2 11.1896 4.32648 14.2564
251 2 10.4204 6.65681 9.62663
252 2 10.2607 6.46258 11.0571
253 2 5.87632 10.1769 10.5904
254 2 4.94364 10.8143 9.46912
255 2 7.91802 7.6928 0.604333
256 2 7.17835 8.74025 1.63464
257 2 14.2008 7.92642 9.35992
258 2 -0.267797 8.44072 8.55252
259 2 6.16366 14.3915 3.8125
260 2 4.75946 14.0077 3.26281
261 2 6.35085 1.60272 6.90857
262 2 4.84301 1.75402 6.76165
263 2 1.34137 0.662419 9.62968
264 2 0.817817 14.7755 10.0578
265 2 10.8342 13.0339 1.10914
266 2 12.2496 13.5788 1.43103
267 2 7.99168 4.93257 10.0429
268 2 8.59208 4.87508 8.55834
269 2 -0.0863874 13.5026 5.64494
270 2 0.00602987 12.1735 6.56287
271 2 6.0476 11.6847 7.84187
272 2 4.65027 12.2574 7.8746
273 2 -0.10786 7.21382 14.4417
274 2 1.40859 7.20909 13.8607
275 2 1.10879 5.19843 12.1297
276 2 0.142322 4.18446 11.4107
277 2 0.192301 0.569522 11.8253
278 2 0.262058 0.216297 13.3227
279 2 13.325 12.966 5.76917
280 2 12.474 12.1815 6.79075
281 2 6.96454 1.33987 0.72514
282 2 6.22808 -0.0168944 1.14781
283 2 5.28424 6.95392 7.95734
284 2 5.69738 8.44349 7.79401
285 2 4.59695 2.96295 -0.156096
286 2 4.05776 3.8329 1.0606
287 2 14.2623 2.20361 0.861912
288 2 14.7961 2.02476 15.1013
289 2 7.90736 0.984376 2.41964
290 2 8.42535 2.08554 3.23522
291 2 9.33834 3.30929 9.83257
292 2 10.1754 1.88055 10.1119
293 2 1.75381 4.52695 9.90946
294 2 1.11552 4.78978 8.54253
295 2 12.2645 0.0873025 4.07993
296 2 12.0334 14.6435 5.15054
297 2 9.97133 5.30379 5.02216
298 2 9.51596 4.30903 3.95105
299 2 9.11176 6.41377 14.7882
300 2 7.57568 6.54 14.599
301 2 2.07189 2.92609 11.9449
302 2 2.69894 1.52435 11.845
303 2 10.8501 14.3815 10.4642
304 2 10.5118 -0.206863 11.478
305 2 0.274248 12.7719 0.61942
306 2 0.108425 11.2293 1.22179
307 2 9.70727 2.84376 13.3266
308 2 10.3129 3.49932 12.1129
309 2 7.16744 3.93944 3.6373
310 2 7.68964 3.77425 2.12389
311 2 2.7812 12.2345 3.34142
312 2 4.17512 12.108 2.65722
313 2 13.4252 2.63657 7.76521
314 2 14.4885 3.85196 7.85505
315 2 1.16553 7.50623 0.684607
316 2 1.80702 6.9489 2.01705
317 2 14.4305 9.58843 13.243
318 2 13.0187 10.0336 13.4694
319 2 5.70123 2.57075 8.68482
320 2 6.80813 3.05178 9.52933
321 2 5.35787 4.80808 5.12533
322 2 5.96938 3.53575 5.71789
323 2 13.0854 2.74416 13.3668
324 2 13.871 1.59988 12.7008
325 2 8.54415 7.16809 5.28465
326 2 9.76316 8.11779 5.62097
327 2 3.5805 7.58031 10.0651
328 2 3.76188 9.05652 10.3377
329 2 4.55808 11.8882 11.3243
330 2 3.56374 12.075 12.5347
331 2 0.334551 11.7965 12.6005
332 2 0.24849 12.8839 13.5924
333 2 6.35726 8.22802 5.65351
334 2 6.38531 8.12785 4.02112
335 2 10.214 9.5859 10.0692
336 2 10.6644 8.57403 11.1276
337 2 8.95214 14.8857 9.64428
338 2 7.3584 14.7538 9.70982
339 2 0.591563 15.0693 0.0182509
340 2 1.70203 14.3696 14.7724
341 2 6.4741 3.89198 0.306924
342 2 7.8908 4.74294 0.474307
343 2 13.7745 5.25403 11.174
344 2 12.6407 6.3597 11.1641
345 2 6.61181 10.3071 13.1711
346 2 7.38294 10.2018 14.4287
347 2 5.92965 6.53312 13.3142
348 2 6.65131 8.00804 13.4902
349 2 4.1508 10.9057 6.58172
350 2 3.72612 9.43762 6.27968
351 2 0.960879 1.05271 5.33877
352 2 1.48012 2.49213 5.40543
353 2 8.71011 13.4532 1.93204
354 2 8.99593 13.78 0.520382
355 2 3.28533 0.709593 5.89467
356 2 4.52263 -0.105961 5.1872
357 2 10.8957 8.12501 1.5533
358 2 9.392 8.09909 2.00114
359 2 2.85608 14.8006 10.6062
360 2 3.90293 13.7417 11.0449
361 2 6.48734 12.6937 1.54518
362 2 7.04029 11.6822 2.67807
363 2 2.24681 10.7375 14.3261
364 2 3.668 10.6767 14.8241
365 2 12.3482 3.69431 0.972113
366 2 13.2921 3.83378 2.19605
367 2 12.5073 12.8061 9.60602
368 2 12.5354 13.311 11.1419
369 2 13.9506 6.55755 12.8999
370 2 13.4462 7.1125 14.3857
371 2 11.8334 1.45816 2.05064
372 2 10.4376 0.894116 2.52875
373 2 0.844146 1.54638 0.605455
374 2 2.39804 1.38307 0.478242
375 2 7.77884 0.12269 7.66547
376 2 8.60235 1.23456 6.91956
377 2 12.4122 11.5105 0.551261
378 2 13.9301 11.2794 0.187093
379 2 13.8259 3.47873 9.96028
380 2 13.5184 3.1733 11.5056
381 2 12.9666 3.11167 5.2382
382 2 12.0906 4.05916 4.29522
383 2 5.48443 10.7696 1.07083
384 2 5.47524 10.05 -0.286949
ITEM: TIMESTEP
200
ITEM: NUMBER OF ATOMS
384
ITEM: BOX BOUNDS pp pp pp
-2.2989006347002316e-01 1.5229890063470055e+01
-2.0075667969305755e-01 1.5200756679693095e+01
-2.0224793522469486e-01 1.5202247935224751e+01
ITEM: ATOMS id type x y z
1 1 4.51386 5.69213 13.0838
2 1 14.5553 3.86324 14.0365
3 1 7.67227 10.5649 3.66878
4 1 1.67539 3.84312 4.63502
5 1 13.7157 10.0179 10.2257
6 1 9.89904 0.151415 -0.0964558
7 1 13.3041 9.60558 6.05317
8 1 3.48069 13.3851 7.72049
9 1 3.2858 6.38788 2.84345
10 1 5.48757 7.96299 2.3779
11 1 13.804 6.508 1.84301
12 1 0.54319 10.1054 13.6723
13 1 14.911 5.3445 4.80743
14 1 9.84524 6.00963 7.82301
15 1 12.1961 6.99257 3.95904
16 1 9.97931 2.86951 6.85097
17 1 4.6585 3.8532 11.2042
18 1 7.33173 10.4331 11.251
19 1 8.3064 2.0213 14.4597
20 1 5.79948 13.7822 0.490647
21 1 -0.128155 13.1603 9.86329
22 1 12.4802 1.93538 6.03848
23 1 10.7523 6.97101 14.0436
24 1 1.93431 7.7589 6.18794
25 1 10.4746 9.2582 5.73037
26 1 15.1935 8.15844 4.63927
27 1 1.74855 11.3083 4.39711
28 1 6.04634 0.365502 10.5648
29 1 12.2907 7.97987 0.295561
30 1 2.19477 6.62361 12.3023
31 1 3.60879 5.61879 5.36601
32 1 7.72932 12.0058 7.86763
33 1 2.85621 3.67243 2.18025
34 1 2.89539 13.3612 0.203356
35 1 -0.131056 5.41245 7.58625
36 1 10.8112 14.6045 7.46334
37 1 1.38439 14.5594 2.58131
38 1 6.04294 0.398274 13.38
39 1 0.458068 9.96826 2.57153
40 1 12.3389 13.1133 12.6062
41 1 1.0517 12.0955 7.998
42 1 13.7428 14.1317 0.210928
43 1 -0.114414 15.1033 4.65418
44 1 8.58751 12.6599 11.7859
45 1 12.456 6.26921 6.66116
46 1 9.75823 10.276 8.2444
47 1 10.5531 10.9377 12.8933
48 1 8.84853 12.2745 5.30997
49 1 3.87171 1.54247 14.4
50 1 6.56028 13.1945 13.4532
51 1 3.97233 5.96347 9.10656
52 1 11.3009 -0.0050235 13.0023
53 1 7.64065 14.1443 3.4672
54 1 4.53754 2.16813 3.42542
55 1 12.2706 11.1311 8.48006
56 1 8.80008 10.3423 15.1907
57 1 1.70855 1.82079 8.45662
58 1 8.53164 5.5293 11.59
59 1 1.25318 9.1186 8.39646
60 1 10.5944 10.6091 3.306
61 1 11.6139 4.2993 14.8421
62 1 10.6395 6.87205 10.5606
63 1 4.89237 10.0555 9.95219
64 1 7.95238 8.03332 1.30272
65 1 14.3024 7.75309 8.52142
66 1 4.97237 14.794 3.70391
67 1 5.7416 1.87549 6.76859
68 1 1.43954 0.433483 10.5063
69 1 11.3591 12.3973 1.55634
70 1 8.09659 4.23621 9.38628
71 1 15.1731 12.5101 5.67941
72 1 5.01158 11.2704 7.58461
73 1 0.860086 7.50269 14.4062
74 1 1.0064 4.33255 11.7493
75 1 -0.141131 0.734893 12.8083
76 1 12.5835 12.4132 6.1527
77 1 6.39074 0.980952 1.38779
78 1 5.5552 8.06446 7.12377
79 1 4.53473 3.99849 -0.163037
80 1 14.5588 1.73827 0.244675
81 1 8.66987 1.22939 2.74371
82 1 10.1196 2.56622 10.2873
83 1 1.71403 4.38235 8.72471
84 1 12.7159 15.139 4.14427
85 1 10.2448 4.7498 4.99956
86 1 8.38296 6.23562 15.0147
87 1 2.74372 2.31479 12.159
88 1 9.8818 14.6278 10.6789
89 1 -0.190567 11.2847 0.613059
90 1 9.67761 3.54824 12.7442
91 1 7.95296 3.87792 3.58509
92 1 3.19224 12.5775 2.63065
93 1 13.4048 3.5317 8.18793
94 1 0.833549 7.47755 1.77645
95 1 13.4093 9.83446 12.6923
96 1 6.10461 2.69554 9.22724
97 1 5.727 3.87986 5.07302
98 1 13.0829 1.93748 12.7399
99 1 8.96253 7.04544 5.38824
100 1 3.04409 8.1808 10.2923
101 1 4.6027 12.0428 12.0349
102 1 0.572464 12.6443 12.2754
103 1 6.74332 8.43841 4.72019
104 1 9.84795 9.5311 10.7872
105 1 7.94151 14.5154 8.97837
106 1 0.644214 14.2922 14.4475
107 1 7.37331 3.93472 0.64286
108 1 13.4274 6.75901 11.0185
109 1 6.73904 9.46691 13.5548
110 1 6.8552 6.93916 13.1908
111 1 3.55241 9.92454 5.72532
112 1 1.63093 1.27673 5.71608
113 1 8.9985 13.1669 0.874934
114 1 3.85004 0.07977 6.09676
115 1 10.4767 8.1781 2.31879
116 1 3.85954 14.166 10.3243
117 1 5.60806 11.5772 2.18698
118 1 3.15142 11.0891 14.1348
119 1 12.4542 2.92227 1.56016
120 1 12.6064 13.4711 10.0399
121 1 13.8623 6.37961 13.7188
122 1 11.3039 0.707154 2.06297
123 1 1.84945 1.32869 1.07481
124 1 8.10133 0.816159 6.64063
125 1 12.6879 10.5648 -0.184035
126 1 14.0068 3.87932 10.7328
127 1 12.5958 4.07305 4.09666
128 1 4.90977 9.63462 0.320184
129 2 4.74849 5.02251 12.5157
130 2 4.32152 5.26451 13.8726
131 2 14.2382 4.71423 14.0883
132 2 -0.218879 3.92379 13.3268
133 2 7.19157 9.7998 4.17698
134 2 8.77342 10.5567 3.40743
135 2 0.906663 4.49918 4.47548
136 2 2.14305 3.84734 3.83498
137 2 14.4617 10.8226 10.2994
138 2 13.478 9.88583 11.1711
139 2 10.4906 0.46149 0.952554
140 2 9.10712 0.799251 15.1551
141 2 13.3854 9.43456 7.01112
142 2 13.306 10.5691 5.9432
143 2 3.75564 13.9577 8.60822
144 2 3.58393 13.9555 6.98921
145 2 2.98844 5.77025 2.30923
146 2 3.33917 6.22256 3.70667
147 2 5.06867 8.78873 1.66177
148 2 4.80562 7.28962 2.43163
149 2 13.1627 6.61544 2.53108
150 2 14.706 6.76494 2.08452
151 2 0.666922 9.06318 13.6916
152 2 0.421973 10.4547 14.6111
153 2 13.8918 4.8137 4.45731
154 2 14.8841 6.28655 4.53256
155 2 10.8038 6.12626 7.34587
156 2 9.39163 6.69347 7.15701
157 2 12.2738 6.97869 4.93776
158 2 11.3176 7.67165 3.71769
159 2 9.86889 3.21064 7.79149
160 2 9.91106 3.71936 6.35479
161 2 4.09638 3.09591 11.1966
162 2 5.45474 3.7243 10.5516
163 2 8.22505 9.93437 11.3748
164 2 7.54767 11.3119 11.2572
165 2 8.01639 2.81086 -0.195887
166 2 7.58647 1.81164 13.9324
167 2 6.21958 13.6173 15.058
168 2 4.83082 14.0374 0.342656
169 2 14.4655 13.469 9.90854
170 2 0.209894 12.9873 10.7555
171 2 11.4569 2.10352 6.30094
172 2 12.7208 1.01536 5.42433
173 2 10.9229 7.00323 13.1364
174 2 11.3501 7.69772 14.6247
175 2 1.23161 7.86661 5.43941
176 2 1.66044 8.30001 6.96842
177 2 11.5496 9.04363 5.88123
178 2 10.606 9.85516 4.922
179 2 14.5486 8.82405 5.21096
180 2 0.0203401 8.66372 3.8681
181 2 1.01822 11.7664 4.94809
182 2 2.31032 10.7906 4.97815
183 2 6.03014 1.19407 9.99723
184 2 5.10714 0.0283223 10.5054
185 2 12.5909 8.96649 -0.00747555
186 2 13.2122 7.40034 0.722469
187 2 2.48977 7.31555 11.6231
188 2 2.95447 6.23268 12.7624
189 2 3.36368 6.38458 5.83815
190 2 2.93764 4.95138 5.25889
191 2 7.85065 12.8928 8.47654
192 2 8.09678 12.1652 6.99998
193 2 2.36018 3.0005 1.68298
194 2 3.59056 2.88484 2.56118
195 2 2.77863 12.5267 14.9344
196 2 2.86343 12.99 1.14293
197 2 -0.0661792 5.75997 6.59251
198 2 14.9379 6.50262 7.79332
199 2 11.4971 -0.161493 7.69476
200 2 11.2408 13.8654 7.14787
201 2 2.16201 14.0825 2.77432
202 2 1.9949 15.1437 1.76619
203 2 6.10163 14.6961 13.3466
204 2 6.01017 0.410537 12.4272
205 2 0.968722 9.2406 2.19989
206 2 0.741403 10.5217 3.28172
207 2 11.7272 13.846 12.6167
208 2 11.5724 12.3842 12.5792
209 2 1.99043 12.5134 7.83089
210 2 0.369762 12.7259 8.8393
211 2 13.6923 15.0259 0.251007
212 2 13.3534 13.9582 14.5839
213 2 14.4558 -0.105825 4.43768
214 2 0.311788 14.7942 3.76025
215 2 9.10238 13.3646 11.1744
216 2 9.37082 12.2075 12.1657
217 2 12.9884 6.63562 7.2936
218 2 12.9264 5.43124 6.31696
219 2 8.79658 10.799 8.07185
220 2 9.87032 9.87717 7.36512
221 2 10.3482 10.2964 12.2924
222 2 10.0147 10.6956 13.6532
223 2 9.97691 12.2209 5.13762
224 2 8.4783 11.5765 4.89395
225 2 4.58819 0.988087 14.1888
226 2 3.36078 1.81674 13.6215
227 2 7.51789 12.9138 13.0489
228 2 5.81979 12.8654 12.9719
229 2 3.27821 5.19344 8.91377
230 2 4.57797 5.57575 9.58557
231 2 10.7551 0.281256 13.8983
232 2 11.8506 0.758069 12.8714
233 2 8.18954 14.928 3.4509
234 2 8.15045 13.7945 4.1632
235 2 5.15885 1.59619 2.71393
236 2 5.16242 2.66572 3.97867
237 2 12.5139 10.8418 9.41991
238 2 11.2744 10.8521 8.2571
239 2 8.42375 9.69358 0.33855
240 2 8.73397 11.3287 0.170253
241 2 1.35885 1.58626 7.46312
242 2 1.69799 2.72967 8.57617
243 2 8.91247 4.7154 12.1467
244 2 7.88167 6.05515 12.1169
245 2 1.68829 8.78234 9.24491
246 2 1.43453 10.1211 8.27882
247 2 10.9777 11.3284 2.83155
248 2 10.8001 9.72661 2.7495
249 2 11.2952 5.19593 14.9738
250 2 11.0553 3.87582 13.9974
251 2 10.6961 6.3059 9.63975
252 2 9.66237 6.50489 10.8492
253 2 5.83058 10.0699 9.88676
254 2 4.71654 10.6251 9.0847
255 2 8.14611 7.33226 0.655343
256 2 6.90161 8.18734 1.90425
257 2 13.8796 7.54529 9.53464
258 2 -0.142941 8.32093 8.80601
259 2 5.87188 14.4838 3.91371
260 2 4.42935 13.8546 3.60848
261 2 6.49523 1.32388 6.51014
262 2 4.95274 1.31784 6.66995
263 2 1.4894 0.975743 9.64844
264 2 0.934057 15.0469 10.2921
265 2 10.4584 12.6332 1.22177
266 2 11.9231 13.1452 1.67241
267 2 8.19531 4.93517 10.3869
268 2 8.4964 4.91427 8.77431
269 2 -0.0505923 13.3702 5.39978
270 2 0.130755 12.3258 6.35872
271 2 5.91296 11.5286 7.42646
272 2 4.41337 11.9706 7.54479
273 2 -0.178244 7.38141 14.3898
274 2 1.3071 7.16967 13.7275
275 2 1.41052 5.22916 11.905
276 2 0.223201 4.2647 11.2445
277 2 0.421093 0.49089 12.047
278 2 0.445017 0.475325 13.4616
279 2 13.4952 12.5662 5.77674
280 2 12.4966 11.8363 7.01262
281 2 6.21099 1.42592 0.573137
282 2 6.43465 -0.0157636 1.24989
283 2 5.35427 7.2486 7.48447
284 2 5.11682 8.6786 7.71172
285 2 4.33251 3.13507 14.8128
286 2 4.02817 4.06107 0.527587
287 2 14.0905 2.15508 0.854754
288 2 14.8704 2.47075 15.032
289 2 8.02998 1.20569 2.03583
290 2 8.60917 2.15486 3.18235
291 2 9.70011 3.1737 9.64285
292 2 10.5102 1.78787 9.9389
293 2 1.25555 4.68537 9.57688
294 2 0.99988 4.94137 8.21071
295 2 12.256 -0.180473 3.31826
296 2 12.4893 14.4868 4.5865
297 2 9.83079 5.85849 4.83423
298 2 9.71064 4.36792 4.29204
299 2 9.31314 6.63093 14.5686
300 2 7.7209 6.40353 14.3223
301 2 2.04182 3.07519 12.0171
302 2 2.39198 1.63686 11.5951
303 2 10.6531 14.5144 10.0503
304 2 10.4557 14.8613 11.5853
305 2 -0.169627 12.1747 0.916529
306 2 0.0632349 10.8799 1.39728
307 2 9.24525 2.90379 13.3933
308 2 10.0696 3.1078 12.1099
309 2 7.07187 4.00317 4.19329
310 2 7.64708 3.91846 2.75354
311 2 2.39653 12.0443 3.2249
312 2 4.15113 12.0392 2.70712
313 2 13.1837 2.82131 7.48598
314 2 14.2057 4.09862 8.0494
315 2 0.944294 7.53008 0.854118
316 2 1.70273 7.06223 2.24964
317 2 14.2539 9.97599 12.8776
318 2 12.8882 10.3359 13.3133
319 2 5.87144 2.55195 8.20955
320 2 6.97043 3.39771 9.17801
321 2 4.96067 4.54632 5.20427
322 2 5.74082 3.3595 5.89287
323 2 13.0451 2.52967 13.4251
324 2 13.9647 1.32648 12.6887
325 2 8.09807 7.24909 5.02434
326 2 9.57939 8.08939 5.3289
327 2 3.5498 7.41569 10.0253
328 2 3.72218 8.88315 10.177
329 2 4.76482 11.4767 11.3089
330 2 3.9529 11.6817 12.7631
331 2 0.29376 11.7356 12.7627
332 2 0.354718 13.3195 12.9587
333 2 6.22483 8.59457 5.44883
334 2 6.22411 8.20621 3.93045
335 2 9.75388 9.87456 10.0085
336 2 10.1305 8.46123 10.8436
337 2 8.73604 14.9918 9.56669
338 2 7.1361 14.7963 9.57548
339 2 0.151838 14.7951 15.0772
340 2 1.59513 13.9799 14.8993
341 2 6.3421 4.03336 0.534196
342 2 7.74952 4.73726 0.634065
343 2 13.5848 5.73283 10.777
344 2 12.3713 6.71941 10.7579
345 2 6.87 9.96168 12.7654
346 2 7.53571 9.6321 14.2777
347 2 5.81052 6.49019 13.1164
348 2 6.75279 7.9563 13.2462
349 2 3.78786 10.3832 6.51133
350 2 3.01029 9.16045 6.02851
351 2 0.873131 0.697675 5.31839
352 2 1.33181 2.19917 5.38182
353 2 8.69494 13.3981 1.73155
354 2 9.13088 13.9934 0.338613
355 2 2.83199 0.377677 6.03893
356 2 4.15616 15.133 5.15912
357 2 11.0308 8.03783 1.52844
358 2 9.68291 7.98673 1.84879
359 2 3.1553 14.7199 10.5381
360 2 4.11242 13.5586 11.0671
361 2 5.8428 12.3137 1.69995
362 2 6.53171 11.1655 2.69053
363 2 2.29172 10.7722 13.8501
364 2 3.52701 10.4883 14.7155
365 2 12.1827 3.43321 0.895128
366 2 12.6683 3.39901 2.48335
367 2 12.3984 12.6803 9.66129
368 2 12.6353 13.2154 11.0787
369 2 13.7143 6.46901 12.7521
370 2 12.9363 6.43871 14.1493
371 2 11.7294 1.59802 1.99078
372 2 10.538 1.01089 2.4396
373 2 0.918542 1.43542 0.76375
374 2 2.17006 1.21942 0.225726
375 2 8.11602 0.404557 7.44119
376 2 8.76049 1.61054 6.70824
377 2 12.2489 11.2129 0.558232
378 2 13.8196 10.6125 0.0969252
379 2 13.7043 3.64234 9.83998
380 2 13.641 3.12305 11.2839
381 2 12.5759 3.27212 4.68427
382 2 11.7058 4.44118 4.19821
383 2 5.43197 10.4105 0.718039
384 2 5.3238 9.41921 14.9429
ITEM: TIMESTEP
400
ITEM: NUMBER OF ATOMS
384
ITEM: BOX BOUNDS pp pp pp
-1.7792508045011868e-01 1.5177925080450148e+01
-7.2874872329593998e-02 1.5072874872329617e+01
-1.0143935956222627e-01 1.5101439359562306e+01
ITEM: ATOMS id type x y z
1 1 4.44702 5.55704 12.7726
2 1 14.8307 3.48142 14.069
3 1 7.26408 10.4934 3.61071
4 1 1.78569 3.4853 4.39476
5 1 13.7176 9.6696 10.1067
6 1 9.39778 -0.047202 14.9196
7 1 13.3683 9.30791 6.48129
8 1 3.41278 13.0259 7.89835
9 1 3.45998 5.99402 2.45318
10 1 5.54963 7.52685 2.00386
11 1 14.0724 6.82157 2.13052
12 1 0.537065 10.103 13.6761
13 1 -0.0650371 5.27675 4.73083
14 1 9.57318 6.34391 8.13132
15 1 12.2549 6.59271 4.36749
16 1 10.2621 2.7987 6.86994
17 1 4.49551 3.92675 10.7215
18 1 7.00693 10.4049 11.0304
19 1 7.91875 1.98429 14.4508
20 1 5.78387 13.2844 0.548428
21 1 -0.0952647 13.1915 9.79806
22 1 12.1209 1.97042 5.27778
23 1 10.8276 6.41973 13.4913
24 1 1.91154 7.83076 6.24267
25 1 10.6822 9.09208 5.78072
26 1 15.0515 8.04619 4.75508
27 1 1.67067 11.1536 4.50055
28 1 5.92552 0.560436 10.54
29 1 12.1112 7.69886 0.227583
30 1 1.99399 6.59674 12.0713
31 1 3.40083 5.57935 5.20264
32 1 7.62996 11.913 7.79132
33 1 3.23576 3.54301 1.67256
34 1 3.17867 13.028 0.193572
35 1 15.1277 5.00283 7.32812
36 1 10.752 14.5539 7.32694
37 1 1.19364 14.3183 2.00771
38 1 5.94169 0.726419 13.154
39 1 0.323906 9.64451 2.73528
40 1 12.2986 13.1279 12.714
41 1 1.22487 11.7581 8.15999
42 1 13.285 13.6419 -0.0233136
43 1 15.0887 14.8332 4.38585
44 1 8.73374 12.7146 11.8744
45 1 12.0135 5.94888 7.15742
46 1 9.82773 10.1778 8.00461
47 1 10.3716 10.8177 12.6961
48 1 8.55406 12.166 5.31447
49 1 3.69307 1.70014 14.1092
50 1 6.33213 13.2929 13.1865
51 1 4.13459 6.02974 8.59725
52 1 11.1884 0.301827 12.512
53 1 7.41265 13.8541 3.55001
54 1 4.58512 1.97801 3.48457
55 1 12.1624 11.3609 8.72942
56 1 9.08328 10.2276 -0.0191003
57 1 2.20674 1.51152 8.26185
58 1 8.67663 5.25936 11.6149
59 1 0.948622 9.19001 8.47935
60 1 10.0187 10.3874 3.54068
61 1 11.827 3.89536 14.0859
62 1 10.2486 6.88343 10.5269
63 1 4.65513 9.83574 9.66736
64 1 8.23909 7.87846 1.54731
65 1 14.3359 7.53278 7.99249
66 1 4.83652 14.4965 3.62983
67 1 5.74877 1.67027 6.61958
68 1 1.62596 0.183929 10.3795
69 1 11.4311 12.4863 1.73274
70 1 8.37036 3.9555 9.1784
71 1 -0.0948356 12.5185 5.77094
72 1 5.3242 11.0028 7.2477
73 1 0.823737 7.54456 14.2643
74 1 0.608422 4.29722 11.6025
75 1 -0.0290017 1.05239 12.4586
76 1 12.4479 12.422 6.03746
77 1 6.25871 0.806949 1.36647
78 1 5.84909 7.91371 7.41747
79 1 4.88901 4.06018 14.9013
80 1 14.3598 1.21571 0.426583
81 1 8.3999 1.05796 2.84546
82 1 10.0882 2.23565 10.4004
83 1 1.79788 4.17823 8.91945
84 1 12.3847 14.7966 3.91794
85 1 9.83936 4.67345 4.94981
86 1 8.26017 5.84113 14.9087
87 1 2.61971 2.2989 11.6166
88 1 10.1988 14.5887 10.3093
89 1 14.7553 11.1978 0.713533
90 1 9.73764 3.11221 12.8033
91 1 7.75154 3.49211 3.62447
92 1 3.36641 12.5063 2.91184
93 1 13.0233 3.72635 7.76972
94 1 1.30792 7.67291 1.57724
95 1 13.3361 9.50457 12.7497
96 1 6.16396 2.83117 8.91429
97 1 5.79564 3.9877 5.37253
98 1 12.7421 2.31749 12.42
99 1 8.69648 7.1115 5.86298
100 1 2.9334 7.99447 9.92975
101 1 4.37099 11.7584 11.7568
102 1 1.07693 12.1141 11.7157
103 1 6.36554 8.27323 4.73748
104 1 9.32447 9.43683 10.5679
105 1 7.95712 14.4681 8.70643
106 1 0.9283 14.0141 14.1556
107 1 7.01816 3.85741 1.21177
108 1 12.9155 6.70618 10.6234
109 1 6.8572 9.4205 13.5054
110 1 6.81794 6.79407 12.9858
111 1 3.6939 9.69199 5.19117
112 1 1.4744 1.16077 5.78709
113 1 8.74841 12.8329 1.12757
114 1 3.68233 14.8691 6.12014
115 1 10.7634 8.07563 2.62149
116 1 3.80159 14.0733 10.2802
117 1 5.4381 11.136 1.88523
118 1 3.152 10.8959 14.0531
119 1 12.3787 2.82474 1.39649
120 1 12.6319 13.4691 10.1421
121 1 13.8697 6.64807 13.3176
122 1 10.8066 0.695889 2.18271
123 1 1.78841 1.5787 0.904919
124 1 8.30396 0.905892 6.13025
125 1 12.4219 10.2786 -0.0122283
126 1 13.449 4.15005 10.6959
127 1 13.0622 4.16096 3.92189
128 1 4.72625 9.39048 0.0791366
129 2 4.50319 4.93536 11.8932
130 2 4.60258 5.1197 13.6198
131 2 14.2995 4.05565 14.5342
132 2 0.0339148 4.04244 13.2715
133 2 7.19589 9.64442 3.9987
134 2 8.07321 10.4856 3.17182
135 2 1.08949 4.03202 4.34682
136 2 2.11768 3.23704 3.58566
137 2 14.646 9.80616 10.0022
138 2 13.67 9.78749 11.0094
139 2 9.75426 0.349932 0.585055
140 2 8.77043 0.791248 14.7629
141 2 13.758 8.88754 7.25992
142 2 13.6813 10.187 6.53627
143 2 3.46851 13.5387 8.79297
144 2 3.48675 13.591 7.08371
145 2 3.24097 5.18338 2.28589
146 2 3.37801 5.94506 3.50337
147 2 5.14953 8.24311 1.34869
148 2 4.86687 6.81232 2.1385
149 2 13.7284 7.21224 2.87105
150 2 15.0534 7.01885 1.95692
151 2 0.695179 9.25289 13.8915
152 2 0.142849 10.271 14.4918
153 2 14.5396 4.71689 4.54388
154 2 -0.173601 6.15386 4.30869
155 2 10.5915 6.31762 7.91406
156 2 9.15181 6.80625 7.23482
157 2 11.9403 6.35941 5.33919
158 2 11.586 6.94341 3.75092
159 2 10.4004 3.1878 7.70004
160 2 9.98143 3.55359 6.29497
161 2 3.97783 3.00556 10.8715
162 2 4.95659 3.51918 9.90272
163 2 7.82344 9.8135 10.7709
164 2 7.26186 11.3794 11.1395
165 2 7.63855 2.55784 0.0606909
166 2 7.19104 1.64265 14.007
167 2 6.27674 13.1974 14.9886
168 2 4.66385 13.2772 0.305658
169 2 14.4289 13.611 9.91823
170 2 0.224971 12.6811 10.6649
171 2 11.1579 2.0327 5.72333
172 2 12.396 1.0418 5.13153
173 2 10.855 6.49323 12.5441
174 2 11.2851 7.08375 14.239
175 2 0.894974 7.84445 5.78335
176 2 1.6373 8.31989 7.17349
177 2 11.7217 9.27877 5.79201
178 2 10.4899 9.60425 4.90676
179 2 14.3254 8.38587 5.23416
180 2 15.1614 8.60054 4.02272
181 2 1.01799 11.7187 5.1358
182 2 2.32975 10.5658 4.83872
183 2 5.8331 1.04571 9.85235
184 2 5.25797 14.9621 10.4148
185 2 12.165 8.69382 0.0990537
186 2 12.6724 7.44482 0.902667
187 2 2.39929 7.27954 11.4516
188 2 2.86287 6.22886 12.3644
189 2 2.72187 6.22908 5.45763
190 2 2.86099 4.86864 5.06639
191 2 7.68122 12.6946 8.38226
192 2 7.92318 12.1381 6.75204
193 2 2.49157 2.86703 1.35498
194 2 3.88338 2.86821 2.14485
195 2 3.39812 11.9611 14.8466
196 2 3.00666 12.6435 1.04869
197 2 0.0229645 5.02272 6.41454
198 2 14.943 6.03491 7.47821
199 2 11.1795 14.8466 8.19843
200 2 11.3482 14.1258 6.80356
201 2 2.03332 14.1371 2.2574
202 2 1.28763 -0.0697465 1.44667
203 2 6.31216 14.938 13.3287
204 2 6.04773 0.78647 12.1476
205 2 0.963377 8.92003 2.40625
206 2 1.09609 10.1609 3.29263
207 2 11.733 13.847 12.6465
208 2 11.6783 12.3882 12.7407
209 2 2.10172 12.17 8.07091
210 2 0.664428 12.2963 8.77163
211 2 13.7657 14.5164 0.111285
212 2 13.0011 13.354 14.0369
213 2 14.0352 14.8394 4.12691
214 2 0.141339 14.6108 3.42206
215 2 9.06226 13.1354 11.0838
216 2 9.64159 12.2964 12.2904
217 2 12.8219 6.26897 7.62744