ITEM: TIMESTEP
0
ITEM: NUMBER OF ATOMS
384
ITEM: BOX BOUNDS pp pp pp
-3.1180958401302572e-01 1.5311809584013066e+01
-3.1180958401302572e-01 1.5311809584013066e+01
-3.1180958401302572e-01 1.5311809584013066e+01
ITEM: ATOMS id type x y z
1 1 4.57679 5.50123 13.6944
2 1 14.8875 3.66367 14.1079
3 1 8.20115 10.8513 3.91518
4 1 1.55859 4.11103 4.68534
5 1 14.0046 11.0534 10.4291
6 1 10.1562 -0.0244194 -0.0179537
7 1 13.1461 9.78511 5.92123
8 1 3.48566 13.6848 7.87681
9 1 3.32305 6.30373 3.20589
10 1 5.30735 8.37688 2.36991
11 1 13.7801 6.32188 1.70807
12 1 0.692367 10.1945 14.1186
13 1 15.0627 5.43363 4.6639
14 1 9.98456 5.97612 7.92121
15 1 12.4056 7.19481 3.96576
16 1 9.83562 2.64919 6.79506
17 1 4.60459 4.17249 11.4106
18 1 7.55062 10.3381 11.1669
19 1 8.27543 1.89543 14.4455
20 1 5.83253 14.0038 0.549654
21 1 -0.277952 13.5963 10.2649
22 1 12.6457 2.09652 6.28487
23 1 10.7129 7.40871 14.2399
24 1 2.2119 7.88472 6.40809
25 1 10.4542 9.69036 5.97773
26 1 -0.282536 8.22967 4.81222
27 1 1.6652 11.2607 4.20606
28 1 6.17365 -0.094545 10.725
29 1 12.1932 8.4542 0.381712
30 1 2.29814 6.67565 12.652
31 1 3.74006 5.65533 5.77839
32 1 7.64075 12.3667 7.75101
33 1 2.57949 3.81144 2.08856
34 1 3.31976 13.3432 0.0677147
35 1 -0.0967938 5.37115 7.46928
36 1 11.1426 14.5448 7.59235
37 1 1.26174 14.8074 2.57217
38 1 6.41618 0.335516 13.3898
39 1 0.207637 9.92258 2.18818
40 1 12.6731 13.1901 12.8323
41 1 1.29363 11.9761 7.9846
42 1 13.2286 14.8362 0.439531
43 1 -0.123887 15.1905 5.01064
44 1 8.80795 12.7708 12.0788
45 1 12.4172 6.75949 6.79319
46 1 9.49869 10.6014 8.40823
47 1 10.544 10.9934 13.3575
48 1 8.99001 12.8372 5.44675
49 1 4.04829 1.51716 14.6149
50 1 6.69928 13.1999 13.7041
51 1 4.43379 6.10378 9.26553
52 1 11.4216 -0.0969869 13.0672
53 1 8.10878 14.4288 3.40524
54 1 4.3962 2.37166 3.28729
55 1 12.1316 11.4523 8.45349
56 1 8.7458 10.8517 -0.213292
57 1 1.53862 1.7361 8.48855
58 1 8.69585 5.89847 11.616
59 1 1.22107 9.19196 8.49846
60 1 10.635 10.5731 3.14594
61 1 11.4957 4.51089 15.2148
62 1 10.9209 6.7156 10.446
63 1 4.94638 10.4223 10.3546
64 1 7.94749 8.55464 1.09697
65 1 14.5919 7.80968 8.4877
66 1 5.26248 14.7619 3.62401
67 1 5.62202 2.26942 6.97039
68 1 1.29568 -0.0251437 10.348
69 1 11.6689 12.7598 1.5126
70 1 8.10674 4.34492 9.29769
71 1 15.2574 12.5827 5.71394
72 1 5.13758 11.4238 7.95676
73 1 0.807368 7.59384 14.5622
74 1 1.07308 4.35508 11.6836
75 1 -0.103901 0.899318 12.6958
76 1 12.4336 12.7126 5.99741
77 1 6.5124 0.898083 1.44852
78 1 5.22926 7.74021 7.34722
79 1 4.69818 3.85809 0.25821
80 1 14.6318 1.53081 0.260033
81 1 8.7843 1.26425 2.88569
82 1 10.1715 2.86217 10.2074
83 1 1.97586 4.56417 8.94346
84 1 12.6683 15.2799 4.82665
85 1 10.1623 4.44247 4.67024
86 1 8.26116 6.29332 15.2182
87 1 2.75694 2.33071 12.3211
88 1 10.1168 15.0402 10.6766
89 1 0.0214213 11.8389 0.424274
90 1 9.92368 3.73613 12.9889
91 1 7.93039 3.8304 3.09944
92 1 3.45334 12.7245 2.72154
93 1 13.7442 3.34545 8.32257
94 1 1.06378 7.50528 1.70711
95 1 13.5608 9.51663 12.896
96 1 6.16563 2.34739 9.6158
97 1 6.00658 4.12469 4.96415
98 1 13.0409 2.11594 12.6389
99 1 9.44842 7.22402 5.61094
100 1 3.08802 8.31472 10.412
101 1 4.27645 12.564 12.0172
102 1 0.247817 12.7339 12.6695
103 1 6.92237 8.32243 4.80264
104 1 10.2096 9.4039 11.0142
105 1 8.10819 14.6608 9.11245
106 1 0.724807 14.5893 14.8093
107 1 7.38606 3.87893 0.612739
108 1 13.59 6.17467 11.3541
109 1 6.57455 9.82429 14.0409
110 1 6.72525 7.05567 13.1783
111 1 3.66994 10.3273 5.96103
112 1 1.66543 1.60839 5.77048
113 1 9.05834 13.0173 1.11863
114 1 4.11235 0.213829 6.02437
115 1 10.3679 8.11545 2.36753
116 1 3.8208 14.5044 10.4834
117 1 6.27696 11.8524 2.07137
118 1 3.1417 11.1769 14.1451
119 1 12.971 3.21476 1.56998
120 1 12.4061 13.5738 10.1924
121 1 14.0948 6.56232 13.8874
122 1 11.4172 0.689063 2.37021
123 1 1.65778 1.52802 1.12949
124 1 7.74882 0.714644 6.86752
125 1 13.0368 10.8806 0.0461404
126 1 14.1536 3.59273 10.8941
127 1 12.9937 3.74289 4.44237
128 1 4.93288 10.2326 0.481908
129 2 4.52916 4.87676 12.9369
130 2 4.69703 5.06241 14.547
131 2 14.6886 4.58995 14.3163
132 2 0.0945933 3.63697 13.6264
133 2 7.74221 10.0755 4.24889
134 2 8.99342 10.7228 3.34745
135 2 0.788771 4.72927 4.53377
136 2 1.81069 3.95163 3.77685
137 2 14.4008 11.9252 10.4575
138 2 13.9069 10.7269 11.3647
139 2 10.6725 0.201823 0.765773
140 2 9.47367 0.652849 -0.0632908
141 2 13.5922 9.97565 6.76473
142 2 13.2152 10.5455 5.32572
143 2 3.67781 14.0964 8.7488
144 2 3.53939 14.3835 7.27865
145 2 3.09567 5.45978 2.78243
146 2 3.60518 6.19337 4.09913
147 2 5.08995 9.05489 1.76222
148 2 4.54185 7.79795 2.5309
149 2 13.4381 6.67871 2.59019
150 2 14.7355 6.25337 1.79471
151 2 0.77524 9.18308 14.2443
152 2 0.388115 10.6288 14.9234
153 2 14.1894 4.91997 4.56536
154 2 14.9228 6.4107 4.60147
155 2 10.8762 5.93786 7.61697
156 2 9.58879 6.53361 7.20672
157 2 12.1014 7.06547 4.8105
158 2 11.5829 7.27566 3.48345
159 2 9.70669 3.06202 7.62541
160 2 9.96186 3.35305 6.0781
161 2 3.89127 3.51534 11.556
162 2 5.31618 3.63484 11.0911
163 2 8.36256 9.80951 10.99
164 2 7.91946 11.2623 11.3115
165 2 7.80256 2.56448 14.9346
166 2 7.58248 1.21916 14.1315
167 2 6.10462 13.5421 -0.242407
168 2 4.85977 13.825 0.528199
169 2 14.4101 13.8153 10.1623
170 2 -0.0704958 13.4422 11.1966
171 2 11.7088 2.1063 6.54679
172 2 12.6961 1.18401 5.89058
173 2 10.9921 7.5299 13.3514
174 2 11.2636 8.01166 14.7268
175 2 1.57728 7.89927 5.7134
176 2 1.87051 8.36741 7.16573
177 2 11.4302 9.71213 6.20698
178 2 10.3486 10.1292 5.1128
179 2 14.4149 8.445 5.04536
180 2 0.00164071 8.8165 4.03796
181 2 1.02838 11.8189 4.67407
182 2 2.36173 10.8675 4.79517
183 2 6.32838 0.734699 10.265
184 2 5.21972 -0.301306 10.6492
185 2 12.568 9.37229 0.310345
186 2 12.8634 7.95827 0.824663
187 2 2.56428 7.41349 12.0109
188 2 3.14156 6.4193 13.0935
189 2 3.16723 6.41343 5.9805
190 2 3.10221 4.98312 5.63197
191 2 7.73547 13.1577 8.33842
192 2 8.06104 12.6116 6.87934
193 2 1.75422 3.38105 1.7562
194 2 3.25148 3.1727 2.47226
195 2 3.15037 12.6412 14.9757
196 2 3.16776 12.9566 0.983888
197 2 0.0720948 5.37286 6.52711
198 2 -0.245356 6.34024 7.61737
199 2 11.6512 14.8569 8.35832
200 2 11.802 13.9131 7.23812
201 2 2.07792 14.3411 2.56175
202 2 1.50629 0.044002 2.08403
203 2 6.3968 14.9261 13.4491
204 2 6.20534 0.425411 12.4267
205 2 0.660795 9.1318 1.85703
206 2 0.694078 10.391 2.87312
207 2 12.3708 14.0972 13.0916
208 2 12.1841 12.5232 13.366
209 2 2.09163 12.5603 7.87369
210 2 0.901668 12.2269 8.80367
211 2 13.6981 0.109016 0.335681
212 2 13.4443 14.3386 15.279
213 2 14.5376 15.2076 4.93591
214 2 0.228484 14.9795 4.13145
215 2 9.24837 13.4527 11.622
216 2 9.52013 12.2417 12.5392
217 2 12.875 7.30125 7.44426
218 2 13.1287 6.09272 6.70831
219 2 8.70364 11.2231 8.31889
220 2 9.67729 10.2938 7.51515
221 2 10.4955 10.2933 12.7118
222 2 10.0325 10.7711 14.1408
223 2 9.87115 13.0955 5.5737
224 2 8.95145 12.0108 4.93614
225 2 4.74251 0.928236 14.2575
226 2 3.48888 1.81195 13.8977
227 2 7.56401 13.1017 13.1985
228 2 6.02622 12.6782 13.2435
229 2 3.65548 5.64787 8.88705
230 2 4.53028 5.65688 10.1121
231 2 10.7483 -0.0654962 13.7661
232 2 11.7812 0.808853 13.0779
233 2 8.36482 -0.291862 3.46612
234 2 8.34757 14.0066 4.25098
235 2 5.1094 1.81781 2.95108
236 2 4.6411 2.96006 4.03817
237 2 12.5339 11.0417 9.22128
238 2 11.1841 11.2095 8.49369
239 2 8.60742 10.312 0.576946
240 2 8.69537 11.7883 0.0583599
241 2 1.42282 1.68337 7.50469
242 2 1.60998 2.65673 8.73322
243 2 8.87953 5.11923 12.1645
244 2 8.03029 6.40716 12.1505
245 2 1.95332 8.95172 9.16853
246 2 1.28006 10.1574 8.3047
247 2 11.2632 11.2403 2.79611
248 2 10.7957 9.70539 2.72449
249 2 11.5653 5.40273 -0.288322
250 2 11.1896 4.32648 14.2564
251 2 10.4204 6.65681 9.62663
252 2 10.2607 6.46258 11.0571
253 2 5.87632 10.1769 10.5904
254 2 4.94364 10.8143 9.46912
255 2 7.91802 7.6928 0.604333
256 2 7.17835 8.74025 1.63464
257 2 14.2008 7.92642 9.35992
258 2 -0.267797 8.44072 8.55252
259 2 6.16366 14.3915 3.8125
260 2 4.75946 14.0077 3.26281
261 2 6.35085 1.60272 6.90857
262 2 4.84301 1.75402 6.76165
263 2 1.34137 0.662419 9.62968
264 2 0.817817 14.7755 10.0578
265 2 10.8342 13.0339 1.10914
266 2 12.2496 13.5788 1.43103
267 2 7.99168 4.93257 10.0429
268 2 8.59208 4.87508 8.55834
269 2 -0.0863874 13.5026 5.64494
270 2 0.00602987 12.1735 6.56287
271 2 6.0476 11.6847 7.84187
272 2 4.65027 12.2574 7.8746
273 2 -0.10786 7.21382 14.4417
274 2 1.40859 7.20909 13.8607
275 2 1.10879 5.19843 12.1297
276 2 0.142322 4.18446 11.4107
277 2 0.192301 0.569522 11.8253
278 2 0.262058 0.216297 13.3227
279 2 13.325 12.966 5.76917
280 2 12.474 12.1815 6.79075
281 2 6.96454 1.33987 0.72514
282 2 6.22808 -0.0168944 1.14781
283 2 5.28424 6.95392 7.95734
284 2 5.69738 8.44349 7.79401
285 2 4.59695 2.96295 -0.156096
286 2 4.05776 3.8329 1.0606
287 2 14.2623 2.20361 0.861912
288 2 14.7961 2.02476 15.1013
289 2 7.90736 0.984376 2.41964
290 2 8.42535 2.08554 3.23522
291 2 9.33834 3.30929 9.83257
292 2 10.1754 1.88055 10.1119
293 2 1.75381 4.52695 9.90946
294 2 1.11552 4.78978 8.54253
295 2 12.2645 0.0873025 4.07993
296 2 12.0334 14.6435 5.15054
297 2 9.97133 5.30379 5.02216
298 2 9.51596 4.30903 3.95105
299 2 9.11176 6.41377 14.7882
300 2 7.57568 6.54 14.599
301 2 2.07189 2.92609 11.9449
302 2 2.69894 1.52435 11.845
303 2 10.8501 14.3815 10.4642
304 2 10.5118 -0.206863 11.478
305 2 0.274248 12.7719 0.61942
306 2 0.108425 11.2293 1.22179
307 2 9.70727 2.84376 13.3266
308 2 10.3129 3.49932 12.1129
309 2 7.16744 3.93944 3.6373
310 2 7.68964 3.77425 2.12389
311 2 2.7812 12.2345 3.34142
312 2 4.17512 12.108 2.65722
313 2 13.4252 2.63657 7.76521
314 2 14.4885 3.85196 7.85505
315 2 1.16553 7.50623 0.684607
316 2 1.80702 6.9489 2.01705
317 2 14.4305 9.58843 13.243
318 2 13.0187 10.0336 13.4694
319 2 5.70123 2.57075 8.68482
320 2 6.80813 3.05178 9.52933
321 2 5.35787 4.80808 5.12533
322 2 5.96938 3.53575 5.71789
323 2 13.0854 2.74416 13.3668
324 2 13.871 1.59988 12.7008
325 2 8.54415 7.16809 5.28465
326 2 9.76316 8.11779 5.62097
327 2 3.5805 7.58031 10.0651
328 2 3.76188 9.05652 10.3377
329 2 4.55808 11.8882 11.3243
330 2 3.56374 12.075 12.5347
331 2 0.334551 11.7965 12.6005
332 2 0.24849 12.8839 13.5924
333 2 6.35726 8.22802 5.65351
334 2 6.38531 8.12785 4.02112
335 2 10.214 9.5859 10.0692
336 2 10.6644 8.57403 11.1276
337 2 8.95214 14.8857 9.64428
338 2 7.3584 14.7538 9.70982
339 2 0.591563 15.0693 0.0182509
340 2 1.70203 14.3696 14.7724
341 2 6.4741 3.89198 0.306924
342 2 7.8908 4.74294 0.474307
343 2 13.7745 5.25403 11.174
344 2 12.6407 6.3597 11.1641
345 2 6.61181 10.3071 13.1711
346 2 7.38294 10.2018 14.4287
347 2 5.92965 6.53312 13.3142
348 2 6.65131 8.00804 13.4902
349 2 4.1508 10.9057 6.58172
350 2 3.72612 9.43762 6.27968
351 2 0.960879 1.05271 5.33877
352 2 1.48012 2.49213 5.40543
353 2 8.71011 13.4532 1.93204
354 2 8.99593 13.78 0.520382
355 2 3.28533 0.709593 5.89467
356 2 4.52263 -0.105961 5.1872
357 2 10.8957 8.12501 1.5533
358 2 9.392 8.09909 2.00114
359 2 2.85608 14.8006 10.6062
360 2 3.90293 13.7417 11.0449
361 2 6.48734 12.6937 1.54518
362 2 7.04029 11.6822 2.67807
363 2 2.24681 10.7375 14.3261
364 2 3.668 10.6767 14.8241
365 2 12.3482 3.69431 0.972113
366 2 13.2921 3.83378 2.19605
367 2 12.5073 12.8061 9.60602
368 2 12.5354 13.311 11.1419
369 2 13.9506 6.55755 12.8999
370 2 13.4462 7.1125 14.3857
371 2 11.8334 1.45816 2.05064
372 2 10.4376 0.894116 2.52875
373 2 0.844146 1.54638 0.605455
374 2 2.39804 1.38307 0.478242
375 2 7.77884 0.12269 7.66547
376 2 8.60235 1.23456 6.91956
377 2 12.4122 11.5105 0.551261
378 2 13.9301 11.2794 0.187093
379 2 13.8259 3.47873 9.96028
380 2 13.5184 3.1733 11.5056
381 2 12.9666 3.11167 5.2382
382 2 12.0906 4.05916 4.29522
383 2 5.48443 10.7696 1.07083
384 2 5.47524 10.05 -0.286949
ITEM: TIMESTEP
200
ITEM: NUMBER OF ATOMS
384
ITEM: BOX BOUNDS pp pp pp
-2.2989006347002316e-01 1.5229890063470055e+01
-2.0075667969305755e-01 1.5200756679693095e+01
-2.0224793522469486e-01 1.5202247935224751e+01
ITEM: ATOMS id type x y z
1 1 4.50119 5.70095 13.1191
2 1 14.5455 3.86907 14.0488
3 1 7.67852 10.5709 3.67269
4 1 1.68787 3.85214 4.6084
5 1 13.7414 10.0031 10.2252
6 1 9.9172 0.159365 -0.085678
7 1 13.3152 9.60378 6.0662
8 1 3.48633 13.3887 7.73196
9 1 3.27464 6.42553 2.84002
10 1 5.48529 7.97815 2.40186
11 1 13.8523 6.48982 1.85908
12 1 0.517217 10.1428 13.6656
13 1 14.9133 5.35441 4.80325
14 1 9.86833 5.99165 7.81916
15 1 12.1863 6.97835 3.94549
16 1 10.0119 2.85288 6.85673
17 1 4.64692 3.8718 11.2072
18 1 7.31796 10.4803 11.2806
19 1 8.31754 2.03601 14.4747
20 1 5.80112 13.8151 0.510387
21 1 -0.153996 13.1777 9.88935
22 1 12.4835 1.95308 6.0271
23 1 10.7419 6.96654 14.0636
24 1 1.92616 7.78077 6.19708
25 1 10.476 9.24287 5.71688
26 1 15.1948 8.16812 4.63497
27 1 1.70581 11.3268 4.40401
28 1 6.02872 0.369143 10.5778
29 1 12.2581 8.03599 0.284288
30 1 2.20382 6.65203 12.3098
31 1 3.54625 5.65136 5.32683
32 1 7.71325 11.9955 7.85392
33 1 2.85396 3.69236 2.17147
34 1 2.90127 13.41 0.153837
35 1 -0.123446 5.43593 7.59717
36 1 10.8089 14.607 7.44623
37 1 1.40101 14.5826 2.58364
38 1 6.04161 0.447169 13.3631
39 1 0.430643 9.96944 2.5357
40 1 12.326 13.1023 12.5964
41 1 1.05275 12.0893 7.99718
42 1 13.718 14.1878 0.226856
43 1 -0.0961581 15.0888 4.66922
44 1 8.63042 12.6893 11.7895
45 1 12.4551 6.29411 6.66028
46 1 9.76606 10.2936 8.24685
47 1 10.5256 10.9475 12.8902
48 1 8.8649 12.2807 5.29534
49 1 3.84243 1.58707 14.4109
50 1 6.55632 13.164 13.4796
51 1 3.96415 5.9721 9.10932
52 1 11.3053 0.0250348 12.9783
53 1 7.64505 14.1328 3.45561
54 1 4.50284 2.18699 3.4213
55 1 12.2604 11.1326 8.48279
56 1 8.78361 10.3215 15.1903
57 1 1.71579 1.82207 8.44912
58 1 8.52547 5.53146 11.5851
59 1 1.27949 9.13182 8.40744
60 1 10.5951 10.582 3.28208
61 1 11.6082 4.26485 14.8223
62 1 10.6733 6.87538 10.5306
63 1 4.9013 10.0262 9.9412
64 1 7.97267 8.02047 1.30548
65 1 14.2918 7.73014 8.52905
66 1 4.98227 14.7716 3.70367
67 1 5.73605 1.87466 6.76734
68 1 1.4298 0.443837 10.5163
69 1 11.3791 12.3653 1.56446
70 1 8.11481 4.20512 9.38532
71 1 15.1703 12.5064 5.66797
72 1 5.01942 11.2527 7.60694
73 1 0.826635 7.49441 14.3669
74 1 1.02368 4.33385 11.7505
75 1 -0.144432 0.721444 12.8265
76 1 12.6011 12.4365 6.16292
77 1 6.38697 0.975578 1.37777
78 1 5.56255 8.0733 7.14032
79 1 4.51096 4.0104 -0.170053
80 1 14.567 1.74677 0.22984
81 1 8.66101 1.25151 2.73054
82 1 10.1195 2.56511 10.3356
83 1 1.71473 4.40127 8.73781
84 1 12.7231 15.193 4.12285
85 1 10.236 4.76345 4.97665
86 1 8.41804 6.24206 15.0175
87 1 2.73997 2.30708 12.1541
88 1 9.90456 14.635 10.7083
89 1 -0.210438 11.294 0.616119
90 1 9.67062 3.54773 12.724
91 1 7.96553 3.86224 3.57735
92 1 3.21716 12.5462 2.65565
93 1 13.4171 3.54308 8.16913
94 1 0.8484 7.47796 1.77371
95 1 13.4106 9.83285 12.6824
96 1 6.10042 2.7233 9.2292
97 1 5.71894 3.91615 5.07359
98 1 13.0653 1.90971 12.7304
99 1 8.94368 7.06785 5.41394
100 1 3.06762 8.13706 10.2686
101 1 4.62319 12.0785 12.044
102 1 0.594457 12.6388 12.2867
103 1 6.77072 8.43278 4.69273
104 1 9.82864 9.52202 10.7747
105 1 7.94334 14.5199 8.95052
106 1 0.664585 14.3005 14.4221
107 1 7.39115 3.87582 0.627471
108 1 13.4062 6.75581 11.0454
109 1 6.74721 9.45987 13.5508
110 1 6.83739 6.93583 13.1842
111 1 3.55881 9.94669 5.71462
112 1 1.62056 1.27497 5.7554
113 1 9.00491 13.1538 0.884732
114 1 3.88202 0.0672314 6.06463
115 1 10.4513 8.15565 2.32354
116 1 3.8554 14.1872 10.3292
117 1 5.6217 11.586 2.18891
118 1 3.13868 11.096 14.1238
119 1 12.463 2.92186 1.57945
120 1 12.6042 13.4587 10.0163
121 1 13.8444 6.37547 13.7127
122 1 11.3228 0.68781 2.08771
123 1 1.84268 1.31523 1.05338
124 1 8.10174 0.80283 6.64441
125 1 12.6848 10.5728 -0.170107
126 1 14.0263 3.88242 10.7373
127 1 12.5932 4.05435 4.09137
128 1 4.90454 9.63341 0.303312
129 2 4.61911 4.91712 12.5474
130 2 4.41343 5.31842 13.8825
131 2 14.2972 4.71131 14.1046
132 2 15.1457 3.88286 13.3995
133 2 7.26725 9.84028 4.07744
134 2 8.67356 10.4201 3.36586
135 2 0.95052 4.54765 4.48597
136 2 2.10785 3.79276 3.79093
137 2 14.4275 10.8278 10.348
138 2 13.3383 10.0044 11.195
139 2 10.3639 0.400134 0.77389
140 2 9.1732 0.805145 15.1933
141 2 13.4548 9.5055 7.04702
142 2 13.1657 10.4867 5.8412
143 2 3.68776 13.8885 8.60901
144 2 3.74006 13.9381 6.96126
145 2 2.87247 5.83348 2.24992
146 2 3.39044 6.15106 3.75703
147 2 5.07305 8.70661 1.78701
148 2 4.77122 7.28937 2.48728
149 2 13.2287 6.6426 2.60812
150 2 14.8248 6.74741 2.07563
151 2 0.662556 9.16755 13.6516
152 2 0.377131 10.3515 14.5903
153 2 13.8761 4.93073 4.49256
154 2 14.8698 6.26195 4.62847
155 2 10.7232 6.21702 7.31329
156 2 9.4273 6.68934 7.23386
157 2 12.3139 7.01387 4.92657
158 2 11.2747 7.61959 3.75974
159 2 9.88559 3.13537 7.81593
160 2 9.91106 3.68394 6.2512
161 2 4.0822 3.09516 11.2879
162 2 5.3554 3.60392 10.6017
163 2 8.22698 9.97704 11.3541
164 2 7.53515 11.4025 11.1985
165 2 8.12528 2.71449 15.1447
166 2 7.46201 1.80727 13.9517
167 2 6.28597 13.5909 15.0294
168 2 4.79822 14.051 0.326035
169 2 14.5329 13.4604 9.94537
170 2 0.253976 13.0097 10.8058
171 2 11.4259 2.05091 6.18458
172 2 12.7087 1.05831 5.47266
173 2 11.1235 7.11203 13.1435
174 2 11.2495 7.74064 14.6256
175 2 1.24431 7.78269 5.43844
176 2 1.54019 8.28471 6.99128
177 2 11.4769 9.10865 5.7822
178 2 10.5193 9.87513 4.88181
179 2 14.503 8.80134 5.06567
180 2 0.0209799 8.7205 3.74004
181 2 1.03082 11.7584 4.99654
182 2 2.34066 10.7774 4.912
183 2 6.06884 1.19774 9.89312
184 2 5.19901 -0.140489 10.4335
185 2 12.6032 9.04989 0.123827
186 2 13.1145 7.39576 0.72017
187 2 2.33243 7.33197 11.5762
188 2 2.91361 6.21756 12.6598
189 2 3.33377 6.3747 5.87212
190 2 2.97963 4.80222 5.30071
191 2 7.71496 13.0187 8.34395
192 2 8.04568 12.0612 7.01324
193 2 2.25829 3.01399 1.7273
194 2 3.6868 2.90161 2.56298
195 2 2.78798 12.3983 14.9804
196 2 2.91496 13.0109 1.15887
197 2 -0.135797 5.76853 6.53835
198 2 14.9132 6.46221 7.75752
199 2 11.4894 -0.0543685 7.723
200 2 11.2534 13.8917 7.12283
201 2 2.06518 14.0621 2.84599
202 2 1.87221 15.1598 1.79201
203 2 6.17752 14.7244 13.3532
204 2 5.91906 0.403697 12.4032
205 2 0.912716 9.15395 2.21809
206 2 0.748302 10.4717 3.33668
207 2 11.7246 13.9411 12.6917
208 2 11.6497 12.3816 12.6325
209 2 2.01186 12.5446 7.91757
210 2 0.382445 12.7228 8.68057
211 2 13.709 15.0966 0.287565
212 2 13.268 14.0186 14.7062
213 2 14.4356 -0.109189 4.39311
214 2 0.341138 14.7957 3.72836
215 2 9.01264 13.3185 11.1285
216 2 9.46134 12.2621 12.2793
217 2 12.927 6.69773 7.19987
218 2 12.9276 5.38912 6.50765
219 2 8.74733 10.754 8.03529
220 2 9.77728 9.89458 7.41926
221 2 10.3703 10.2402 12.3302
222 2 10.1332 10.6312 13.5506
223 2 9.91659 12.138 5.11385
224 2 8.34706 11.5923 4.9146
225 2 4.7086 0.952702 14.2384
226 2 3.43666 1.82082 13.5683
227 2 7.5034 12.8735 13.0722
228 2 5.92709 12.8563 12.9245
229 2 3.23627 5.24163 8.81835
230 2 4.584 5.52447 9.6225
231 2 10.8007 0.246313 13.926
232 2 11.915 0.687401 12.8533
233 2 8.04205 14.996 3.38242
234 2 8.06715 13.823 4.19896
235 2 5.12658 1.60449 2.73989
236 2 5.14306 2.70767 4.05395
237 2 12.5264 10.7791 9.39144
238 2 11.2569 10.8606 8.33137
239 2 8.35694 9.67217 0.352298
240 2 8.71688 11.3126 0.0931978
241 2 1.44624 1.58355 7.49771
242 2 1.72637 2.8182 8.55912
243 2 9.01954 4.68934 12.1724
244 2 7.82407 6.10699 12.165
245 2 1.68497 8.81096 9.20285
246 2 1.54611 10.1783 8.21736
247 2 11.03 11.406 2.83124
248 2 10.7353 9.67984 2.81607
249 2 11.2287 5.23381 15.0148
250 2 11.0991 3.87348 13.9858
251 2 10.758 6.3552 9.66264
252 2 9.75106 6.51325 10.8548
253 2 5.86201 10.0145 10.0424
254 2 4.67833 10.7104 9.09441
255 2 8.08031 7.25628 0.55664
256 2 7.01348 8.19409 1.89643
257 2 13.937 7.58733 9.56356
258 2 -0.100793 8.27752 8.72428
259 2 5.94495 14.4481 3.91089
260 2 4.56346 13.9376 3.5838
261 2 6.53225 1.31866 6.55771
262 2 4.83598 1.23864 6.63062
263 2 1.51078 0.907999 9.68343
264 2 1.01974 15.0113 10.2981
265 2 10.5343 12.5224 1.18209
266 2 11.9371 13.0589 1.63941
267 2 8.20024 4.98339 10.3155
268 2 8.40466 4.90864 8.75006
269 2 -0.155066 13.428 5.38941
270 2 0.182501 12.29 6.38475
271 2 5.9778 11.4668 7.47184
272 2 4.59206 12.078 7.44328
273 2 -0.195467 7.36286 14.4347
274 2 1.2366 7.11196 13.6913
275 2 1.45712 5.18159 11.9051
276 2 0.23889 4.36154 11.2923
277 2 0.393158 0.493345 12.0608
278 2 0.464806 0.417239 13.4424
279 2 13.525 12.4353 5.75474
280 2 12.551 11.8777 6.9688
281 2 6.22601 1.38016 0.571943
282 2 6.3125 -0.0127385 1.24707
283 2 5.36203 7.24805 7.52409
284 2 5.08244 8.67266 7.70508
285 2 4.30936 3.07926 14.8997
286 2 4.0279 4.07975 0.654803
287 2 14.0599 2.17389 0.784888
288 2 14.8115 2.49124 15.0915
289 2 8.02017 1.25242 2.17369
290 2 8.63674 2.27564 3.26919
291 2 9.73733 3.1009 9.57849
292 2 10.4285 1.77757 9.89661
293 2 1.24844 4.57877 9.66934
294 2 0.959309 4.90405 8.22308
295 2 12.1143 -0.105594 3.39724
296 2 12.504 14.5372 4.64828
297 2 9.79387 5.86618 4.91772
298 2 9.59936 4.34204 4.36732
299 2 9.30873 6.56179 14.5872
300 2 7.62638 6.44208 14.354
301 2 2.02063 3.07915 12.0236
302 2 2.4084 1.60583 11.5591
303 2 10.7384 14.5203 10.1429
304 2 10.3174 14.8611 11.4903
305 2 -0.163758 12.2554 0.847122
306 2 0.0290698 10.8741 1.48228
307 2 9.16552 2.9099 13.424
308 2 10.1462 3.04963 11.9558
309 2 7.08295 4.00383 4.10774
310 2 7.62623 3.93823 2.77071
311 2 2.44948 12.0521 3.22794
312 2 4.09797 11.9765 2.58554
313 2 13.2204 2.77367 7.45392
314 2 14.2334 4.10933 8.14104
315 2 1.07134 7.4358 0.842723
316 2 1.6031 7.08173 2.26616
317 2 14.2917 9.96563 12.9597
318 2 12.9462 10.3256 13.3049
319 2 5.87184 2.56896 8.22032
320 2 6.81172 3.38458 9.23945
321 2 4.95329 4.6133 5.25147
322 2 5.74792 3.39996 5.85197
323 2 13.0339 2.59939 13.415
324 2 13.9681 1.32186 12.7788
325 2 8.09759 7.15541 4.84968
326 2 9.51562 8.1065 5.33759
327 2 3.45325 7.36168 10.0285
328 2 3.75706 8.82422 10.1656
329 2 4.70322 11.5105 11.3078
330 2 4.02451 11.7203 12.7449
331 2 0.215269 11.6836 12.7551
332 2 0.352688 13.261 12.8494
333 2 6.29408 8.56238 5.55579
334 2 6.15754 8.20729 3.9
335 2 9.81527 9.82362 9.97307
336 2 10.0012 8.50463 10.7155
337 2 8.78127 14.91 9.5892
338 2 7.07764 14.7507 9.60645
339 2 0.178513 14.7317 15.116
340 2 1.65057 14.1035 14.9205
341 2 6.23425 4.04471 0.565214
342 2 7.7259 4.77524 0.753476
343 2 13.6344 5.76125 10.7599
344 2 12.3888 6.72207 10.6882
345 2 6.90535 9.91956 12.7319
346 2 7.54833 9.62008 14.1618
347 2 5.85909 6.42436 13.0199
348 2 6.85106 8.13722 13.2109
349 2 3.75253 10.4398 6.5012
350 2 2.84523 9.20129 5.97761
351 2 0.721035 0.526056 5.31343
352 2 1.46116 2.12612 5.37887
353 2 8.79548 13.3577 1.77106
354 2 9.15024 14.0332 0.333932
355 2 2.84559 0.403328 6.0684
356 2 4.1422 -0.149362 5.02968
357 2 11.135 8.03107 1.59046
358 2 9.55955 7.96113 1.92403
359 2 3.15953 14.7237 10.5894
360 2 4.22809 13.5817 11.0318
361 2 5.86176 12.3248 1.62579
362 2 6.51362 11.184 2.71821
363 2 2.29477 10.7799 13.9082
364 2 3.64935 10.4762 14.6583
365 2 12.1214 3.51984 0.860468
366 2 12.5831 3.41188 2.40555
367 2 12.3963 12.7823 9.60659
368 2 12.5668 13.2413 11.1185
369 2 13.7026 6.5262 12.7555
370 2 12.9687 6.46873 14.0971
371 2 11.6803 1.59142 1.8776
372 2 10.4894 1.06966 2.47902
373 2 0.879466 1.46716 0.8447
374 2 2.20691 1.10285 0.240137
375 2 8.09725 0.280534 7.56136
376 2 8.77907 1.59208 6.80702
377 2 12.2648 11.1169 0.59648
378 2 13.7904 10.5519 0.116656
379 2 13.6745 3.66265 9.80355
380 2 13.397 2.99798 11.2583
381 2 12.5033 3.31884 4.64115
382 2 11.6249 4.4377 4.2369
383 2 5.47421 10.3904 0.686829
384 2 5.28962 9.4347 14.9126
ITEM: TIMESTEP
400
ITEM: NUMBER OF ATOMS
384
ITEM: BOX BOUNDS pp pp pp
-1.7792508045011868e-01 1.5177925080450148e+01
-7.2874872329593998e-02 1.5072874872329617e+01
-1.0143935956222627e-01 1.5101439359562306e+01
ITEM: ATOMS id type x y z
1 1 4.45939 5.56401 12.752
2 1 14.8101 3.48566 14.0599
3 1 7.26644 10.5017 3.64139
4 1 1.7864 3.46271 4.37525
5 1 13.7071 9.69339 10.1048
6 1 9.41963 -0.0127836 14.9404
7 1 13.3916 9.30882 6.46693
8 1 3.40421 13.0424 7.89184
9 1 3.44357 6.00014 2.42459
10 1 5.55374 7.52041 1.98928
11 1 14.0656 6.82239 2.0949
12 1 0.546342 10.0922 13.6803
13 1 -0.0639111 5.2968 4.70814
14 1 9.54282 6.33504 8.14169
15 1 12.2393 6.615 4.37072
16 1 10.2597 2.83508 6.83539
17 1 4.51754 3.93351 10.6857
18 1 7.02324 10.39 11.0191
19 1 7.93738 1.98778 14.4552
20 1 5.76194 13.2957 0.555288
21 1 -0.078887 13.1985 9.81485
22 1 12.1139 1.96477 5.27209
23 1 10.8106 6.42592 13.5184
24 1 1.91366 7.80685 6.24253
25 1 10.6709 9.0909 5.7878
26 1 15.0422 8.03675 4.75962
27 1 1.66404 11.1385 4.48339
28 1 5.91724 0.568079 10.5479
29 1 12.114 7.68996 0.242905
30 1 1.9923 6.6195 12.0838
31 1 3.38341 5.55593 5.17648
32 1 7.62759 11.9259 7.76955
33 1 3.23159 3.56883 1.66978
34 1 3.15621 13.0286 0.209718
35 1 15.1614 5.00486 7.32819
36 1 10.744 14.5393 7.36008
37 1 1.18615 14.3239 2.01095
38 1 5.95814 0.746132 13.1555
39 1 0.332781 9.67208 2.71589
40 1 12.3156 13.1375 12.739
41 1 1.23548 11.7499 8.13114
42 1 13.3011 13.6505 -0.0236193
43 1 15.0728 14.8457 4.38446
44 1 8.7594 12.6966 11.8624
45 1 12.0068 5.96828 7.13699
46 1 9.8303 10.1832 8.00882
47 1 10.383 10.8092 12.6683
48 1 8.53986 12.1737 5.31893
49 1 3.70787 1.66841 14.1125
50 1 6.35159 13.3014 13.2124
51 1 4.1166 6.03683 8.57836
52 1 11.2109 0.302306 12.5162
53 1 7.42015 13.8413 3.54
54 1 4.59177 1.97496 3.47409
55 1 12.1638 11.3403 8.72025
56 1 9.08339 10.207 -0.00288168
57 1 2.20327 1.52694 8.28397
58 1 8.68558 5.25107 11.6106
59 1 0.953355 9.21559 8.49104
60 1 10.0413 10.3899 3.55426
61 1 11.8489 3.90323 14.0951
62 1 10.2791 6.93941 10.5723
63 1 4.67889 9.84813 9.6752
64 1 8.22115 7.87693 1.54269
65 1 14.3262 7.54848 7.9936
66 1 4.83659 14.4947 3.63945
67 1 5.7627 1.67326 6.61154
68 1 1.62672 0.204221 10.3943
69 1 11.4285 12.4605 1.73622
70 1 8.38361 3.94238 9.19556
71 1 -0.114742 12.5269 5.76366
72 1 5.32502 10.9846 7.25785
73 1 0.806568 7.53189 14.2564
74 1 0.59696 4.30847 11.5911
75 1 -0.0240327 1.06746 12.4663
76 1 12.4328 12.4195 6.02673
77 1 6.24897 0.810559 1.34246
78 1 5.83584 7.90093 7.38692
79 1 4.89542 4.05644 14.8942
80 1 14.3695 1.21562 0.425442
81 1 8.40272 1.02394 2.85835
82 1 10.09 2.217 10.4129
83 1 1.815 4.17189 8.92457
84 1 12.3761 14.8124 3.925
85 1 9.84344 4.68259 4.95516
86 1 8.26215 5.82751 14.9113
87 1 2.61433 2.28173 11.6214
88 1 10.2175 14.5806 10.2836
89 1 14.7665 11.2113 0.746942
90 1 9.76209 3.13748 12.8396
91 1 7.73853 3.48008 3.63337
92 1 3.34006 12.5218 2.90109
93 1 13.0553 3.73273 7.76497
94 1 1.3288 7.65075 1.5796
95 1 13.3621 9.5092 12.7436
96 1 6.16322 2.78874 8.91196
97 1 5.80206 3.99207 5.37978
98 1 12.7417 2.31551 12.4106
99 1 8.68829 7.09154 5.85226
100 1 2.90646 8.00436 9.91141
101 1 4.36961 11.758 11.7546
102 1 1.10634 12.1397 11.7269
103 1 6.35123 8.28908 4.76439
104 1 9.31378 9.43692 10.5713
105 1 7.95214 14.4693 8.70736
106 1 0.947129 14.0216 14.1404
107 1 7.00595 3.89844 1.24248
108 1 12.9432 6.70055 10.5866
109 1 6.88548 9.39871 13.5049
110 1 6.79898 6.79144 12.981
111 1 3.72213 9.6825 5.19409
112 1 1.49641 1.17694 5.77258
113 1 8.77351 12.8239 1.14563
114 1 3.68486 14.903 6.14405
115 1 10.7569 8.06991 2.61039
116 1 3.82171 14.0901 10.2775
117 1 5.42032 11.1228 1.87769
118 1 3.15957 10.8924 14.0403
119 1 12.3603 2.86395 1.37908
120 1 12.6153 13.4547 10.1603
121 1 13.8536 6.66184 13.3038
122 1 10.8101 0.684407 2.20745
123 1 1.76482 1.54123 0.927154
124 1 8.32045 0.92755 6.144
125 1 12.4129 10.2772 -0.0155612
126 1 13.4771 4.16955 10.7212
127 1 13.0903 4.12388 3.91796
128 1 4.71565 9.40441 0.056406
129 2 4.61735 4.96895 11.9032
130 2 4.70301 5.1926 13.6212
131 2 14.3078 4.07983 14.4465
132 2 -0.0513121 4.00163 13.1501
133 2 7.1761 9.60319 4.00445
134 2 8.15334 10.4907 3.17564
135 2 1.08438 4.09216 4.33951
136 2 2.043 3.15005 3.58623
137 2 14.5601 9.76719 9.94707
138 2 13.611 9.79874 11.0141
139 2 9.8395 0.375924 0.557885
140 2 8.7118 0.830976 14.812
141 2 13.7363 8.91027 7.22817
142 2 13.7683 10.1736 6.49786
143 2 3.53769 13.5728 8.66587
144 2 3.56103 13.6668 7.16178
145 2 3.16707 5.12828 2.21784
146 2 3.42726 5.97034 3.46075
147 2 5.2934 8.20708 1.31883
148 2 4.92164 6.80172 2.09763
149 2 13.7473 7.33108 2.86208
150 2 14.9362 7.04696 1.87023
151 2 0.664496 9.16931 13.9803
152 2 0.161271 10.3865 14.5166
153 2 14.6111 4.7172 4.52038
154 2 15.1524 6.23597 4.26031
155 2 10.5473 6.14894 7.89922
156 2 9.13094 6.78892 7.28164
157 2 11.9518 6.25663 5.21277
158 2 11.5506 7.06212 3.67806
159 2 10.4541 3.22264 7.7212
160 2 10.0365 3.56879 6.32769
161 2 4.08346 2.93923 10.7944
162 2 4.94005 3.54216 9.9348
163 2 7.84933 9.75832 10.824
164 2 7.45959 11.4191 11.1378
165 2 7.71384 2.55837 0.0629922
166 2 7.19754 1.8126 14.0427
167 2 6.26809 13.2932 14.8928
168 2 4.82504 13.2674 0.305475
169 2 14.4253 13.6318 9.91334
170 2 0.299687 12.6971 10.6905
171 2 11.1835 2.11803 5.74727
172 2 12.3441 1.07111 5.05666
173 2 10.8366 6.41083 12.4902
174 2 11.3379 7.05071 14.1371
175 2 0.974683 7.83384 5.7429
176 2 1.66537 8.31664 7.09589
177 2 11.6792 9.27431 5.89557
178 2 10.4437 9.63857 4.94109
179 2 14.3019 8.36049 5.20874
180 2 15.0749 8.57011 3.91412
181 2 0.974061 11.7201 5.14841
182 2 2.43285 10.6858 4.94863
183 2 5.89347 1.14154 9.92287
184 2 5.15981 14.8469 10.4106
185 2 12.1329 8.6676 0.245233
186 2 12.7424 7.39117 0.946426
187 2 2.34558 7.26663 11.4026
188 2 2.85072 6.20019 12.3592
189 2 2.71269 6.29814 5.46397
190 2 2.84404 4.84754 5.04788
191 2 7.76539 12.7033 8.39737
192 2 8.01562 12.1612 6.80397
193 2 2.49657 2.89489 1.2691
194 2 3.91035 2.87445 2.14154
195 2 3.36615 12.0095 14.8441
196 2 3.00938 12.7497 1.10526
197 2 0.0224124 5.04041 6.41015
198 2 15.1461 6.12312 7.5368
199 2 11.1921 14.8673 8.21686
200 2 11.2797 14.1074 6.81969
201 2 2.04129 14.2375 2.23712
202 2 1.34523 0.0618086 1.45851
203 2 6.26212 14.8851 13.3755
204 2 6.04199 0.681569 12.0566
205 2 1.0414 8.92791 2.38463
206 2 1.097 10.1156 3.24451
207 2 11.7209 13.9954 12.7629
208 2 11.6587 12.4305 12.8351
209 2 2.12327 12.1929 8.0387
210 2 0.653434 12.3166 8.76236
211 2 13.7267 14.5697 0.0288136
212 2 12.8423 13.3303 14.1372
213 2 14.0735 14.9196 4.16138
214 2 0.0944275 14.6246 3.41457
215 2 9.07452 13.1511 11.1416
216 2 9.58005 12.2024 12.2309
217 2 12.8581 6.32228 7.71251
218 2 12.2743 4.98641 7.34032