ITEM: TIMESTEP
0
ITEM: NUMBER OF ATOMS
384
ITEM: BOX BOUNDS pp pp pp
-3.1180958401302572e-01 1.5311809584013066e+01
-3.1180958401302572e-01 1.5311809584013066e+01
-3.1180958401302572e-01 1.5311809584013066e+01
ITEM: ATOMS id type x y z
1 1 4.57679 5.50123 13.6944
2 1 14.8875 3.66367 14.1079
3 1 8.20115 10.8513 3.91518
4 1 1.55859 4.11103 4.68534
5 1 14.0046 11.0534 10.4291
6 1 10.1562 -0.0244194 -0.0179537
7 1 13.1461 9.78511 5.92123
8 1 3.48566 13.6848 7.87681
9 1 3.32305 6.30373 3.20589
10 1 5.30735 8.37688 2.36991
11 1 13.7801 6.32188 1.70807
12 1 0.692367 10.1945 14.1186
13 1 15.0627 5.43363 4.6639
14 1 9.98456 5.97612 7.92121
15 1 12.4056 7.19481 3.96576
16 1 9.83562 2.64919 6.79506
17 1 4.60459 4.17249 11.4106
18 1 7.55062 10.3381 11.1669
19 1 8.27543 1.89543 14.4455
20 1 5.83253 14.0038 0.549654
21 1 -0.277952 13.5963 10.2649
22 1 12.6457 2.09652 6.28487
23 1 10.7129 7.40871 14.2399
24 1 2.2119 7.88472 6.40809
25 1 10.4542 9.69036 5.97773
26 1 -0.282536 8.22967 4.81222
27 1 1.6652 11.2607 4.20606
28 1 6.17365 -0.094545 10.725
29 1 12.1932 8.4542 0.381712
30 1 2.29814 6.67565 12.652
31 1 3.74006 5.65533 5.77839
32 1 7.64075 12.3667 7.75101
33 1 2.57949 3.81144 2.08856
34 1 3.31976 13.3432 0.0677147
35 1 -0.0967938 5.37115 7.46928
36 1 11.1426 14.5448 7.59235
37 1 1.26174 14.8074 2.57217
38 1 6.41618 0.335516 13.3898
39 1 0.207637 9.92258 2.18818
40 1 12.6731 13.1901 12.8323
41 1 1.29363 11.9761 7.9846
42 1 13.2286 14.8362 0.439531
43 1 -0.123887 15.1905 5.01064
44 1 8.80795 12.7708 12.0788
45 1 12.4172 6.75949 6.79319
46 1 9.49869 10.6014 8.40823
47 1 10.544 10.9934 13.3575
48 1 8.99001 12.8372 5.44675
49 1 4.04829 1.51716 14.6149
50 1 6.69928 13.1999 13.7041
51 1 4.43379 6.10378 9.26553
52 1 11.4216 -0.0969869 13.0672
53 1 8.10878 14.4288 3.40524
54 1 4.3962 2.37166 3.28729
55 1 12.1316 11.4523 8.45349
56 1 8.7458 10.8517 -0.213292
57 1 1.53862 1.7361 8.48855
58 1 8.69585 5.89847 11.616
59 1 1.22107 9.19196 8.49846
60 1 10.635 10.5731 3.14594
61 1 11.4957 4.51089 15.2148
62 1 10.9209 6.7156 10.446
63 1 4.94638 10.4223 10.3546
64 1 7.94749 8.55464 1.09697
65 1 14.5919 7.80968 8.4877
66 1 5.26248 14.7619 3.62401
67 1 5.62202 2.26942 6.97039
68 1 1.29568 -0.0251437 10.348
69 1 11.6689 12.7598 1.5126
70 1 8.10674 4.34492 9.29769
71 1 15.2574 12.5827 5.71394
72 1 5.13758 11.4238 7.95676
73 1 0.807368 7.59384 14.5622
74 1 1.07308 4.35508 11.6836
75 1 -0.103901 0.899318 12.6958
76 1 12.4336 12.7126 5.99741
77 1 6.5124 0.898083 1.44852
78 1 5.22926 7.74021 7.34722
79 1 4.69818 3.85809 0.25821
80 1 14.6318 1.53081 0.260033
81 1 8.7843 1.26425 2.88569
82 1 10.1715 2.86217 10.2074
83 1 1.97586 4.56417 8.94346
84 1 12.6683 15.2799 4.82665
85 1 10.1623 4.44247 4.67024
86 1 8.26116 6.29332 15.2182
87 1 2.75694 2.33071 12.3211
88 1 10.1168 15.0402 10.6766
89 1 0.0214213 11.8389 0.424274
90 1 9.92368 3.73613 12.9889
91 1 7.93039 3.8304 3.09944
92 1 3.45334 12.7245 2.72154
93 1 13.7442 3.34545 8.32257
94 1 1.06378 7.50528 1.70711
95 1 13.5608 9.51663 12.896
96 1 6.16563 2.34739 9.6158
97 1 6.00658 4.12469 4.96415
98 1 13.0409 2.11594 12.6389
99 1 9.44842 7.22402 5.61094
100 1 3.08802 8.31472 10.412
101 1 4.27645 12.564 12.0172
102 1 0.247817 12.7339 12.6695
103 1 6.92237 8.32243 4.80264
104 1 10.2096 9.4039 11.0142
105 1 8.10819 14.6608 9.11245
106 1 0.724807 14.5893 14.8093
107 1 7.38606 3.87893 0.612739
108 1 13.59 6.17467 11.3541
109 1 6.57455 9.82429 14.0409
110 1 6.72525 7.05567 13.1783
111 1 3.66994 10.3273 5.96103
112 1 1.66543 1.60839 5.77048
113 1 9.05834 13.0173 1.11863
114 1 4.11235 0.213829 6.02437
115 1 10.3679 8.11545 2.36753
116 1 3.8208 14.5044 10.4834
117 1 6.27696 11.8524 2.07137
118 1 3.1417 11.1769 14.1451
119 1 12.971 3.21476 1.56998
120 1 12.4061 13.5738 10.1924
121 1 14.0948 6.56232 13.8874
122 1 11.4172 0.689063 2.37021
123 1 1.65778 1.52802 1.12949
124 1 7.74882 0.714644 6.86752
125 1 13.0368 10.8806 0.0461404
126 1 14.1536 3.59273 10.8941
127 1 12.9937 3.74289 4.44237
128 1 4.93288 10.2326 0.481908
129 2 4.52916 4.87676 12.9369
130 2 4.69703 5.06241 14.547
131 2 14.6886 4.58995 14.3163
132 2 0.0945933 3.63697 13.6264
133 2 7.74221 10.0755 4.24889
134 2 8.99342 10.7228 3.34745
135 2 0.788771 4.72927 4.53377
136 2 1.81069 3.95163 3.77685
137 2 14.4008 11.9252 10.4575
138 2 13.9069 10.7269 11.3647
139 2 10.6725 0.201823 0.765773
140 2 9.47367 0.652849 -0.0632908
141 2 13.5922 9.97565 6.76473
142 2 13.2152 10.5455 5.32572
143 2 3.67781 14.0964 8.7488
144 2 3.53939 14.3835 7.27865
145 2 3.09567 5.45978 2.78243
146 2 3.60518 6.19337 4.09913
147 2 5.08995 9.05489 1.76222
148 2 4.54185 7.79795 2.5309
149 2 13.4381 6.67871 2.59019
150 2 14.7355 6.25337 1.79471
151 2 0.77524 9.18308 14.2443
152 2 0.388115 10.6288 14.9234
153 2 14.1894 4.91997 4.56536
154 2 14.9228 6.4107 4.60147
155 2 10.8762 5.93786 7.61697
156 2 9.58879 6.53361 7.20672
157 2 12.1014 7.06547 4.8105
158 2 11.5829 7.27566 3.48345
159 2 9.70669 3.06202 7.62541
160 2 9.96186 3.35305 6.0781
161 2 3.89127 3.51534 11.556
162 2 5.31618 3.63484 11.0911
163 2 8.36256 9.80951 10.99
164 2 7.91946 11.2623 11.3115
165 2 7.80256 2.56448 14.9346
166 2 7.58248 1.21916 14.1315
167 2 6.10462 13.5421 -0.242407
168 2 4.85977 13.825 0.528199
169 2 14.4101 13.8153 10.1623
170 2 -0.0704958 13.4422 11.1966
171 2 11.7088 2.1063 6.54679
172 2 12.6961 1.18401 5.89058
173 2 10.9921 7.5299 13.3514
174 2 11.2636 8.01166 14.7268
175 2 1.57728 7.89927 5.7134
176 2 1.87051 8.36741 7.16573
177 2 11.4302 9.71213 6.20698
178 2 10.3486 10.1292 5.1128
179 2 14.4149 8.445 5.04536
180 2 0.00164071 8.8165 4.03796
181 2 1.02838 11.8189 4.67407
182 2 2.36173 10.8675 4.79517
183 2 6.32838 0.734699 10.265
184 2 5.21972 -0.301306 10.6492
185 2 12.568 9.37229 0.310345
186 2 12.8634 7.95827 0.824663
187 2 2.56428 7.41349 12.0109
188 2 3.14156 6.4193 13.0935
189 2 3.16723 6.41343 5.9805
190 2 3.10221 4.98312 5.63197
191 2 7.73547 13.1577 8.33842
192 2 8.06104 12.6116 6.87934
193 2 1.75422 3.38105 1.7562
194 2 3.25148 3.1727 2.47226
195 2 3.15037 12.6412 14.9757
196 2 3.16776 12.9566 0.983888
197 2 0.0720948 5.37286 6.52711
198 2 -0.245356 6.34024 7.61737
199 2 11.6512 14.8569 8.35832
200 2 11.802 13.9131 7.23812
201 2 2.07792 14.3411 2.56175
202 2 1.50629 0.044002 2.08403
203 2 6.3968 14.9261 13.4491
204 2 6.20534 0.425411 12.4267
205 2 0.660795 9.1318 1.85703
206 2 0.694078 10.391 2.87312
207 2 12.3708 14.0972 13.0916
208 2 12.1841 12.5232 13.366
209 2 2.09163 12.5603 7.87369
210 2 0.901668 12.2269 8.80367
211 2 13.6981 0.109016 0.335681
212 2 13.4443 14.3386 15.279
213 2 14.5376 15.2076 4.93591
214 2 0.228484 14.9795 4.13145
215 2 9.24837 13.4527 11.622
216 2 9.52013 12.2417 12.5392
217 2 12.875 7.30125 7.44426
218 2 13.1287 6.09272 6.70831
219 2 8.70364 11.2231 8.31889
220 2 9.67729 10.2938 7.51515
221 2 10.4955 10.2933 12.7118
222 2 10.0325 10.7711 14.1408
223 2 9.87115 13.0955 5.5737
224 2 8.95145 12.0108 4.93614
225 2 4.74251 0.928236 14.2575
226 2 3.48888 1.81195 13.8977
227 2 7.56401 13.1017 13.1985
228 2 6.02622 12.6782 13.2435
229 2 3.65548 5.64787 8.88705
230 2 4.53028 5.65688 10.1121
231 2 10.7483 -0.0654962 13.7661
232 2 11.7812 0.808853 13.0779
233 2 8.36482 -0.291862 3.46612
234 2 8.34757 14.0066 4.25098
235 2 5.1094 1.81781 2.95108
236 2 4.6411 2.96006 4.03817
237 2 12.5339 11.0417 9.22128
238 2 11.1841 11.2095 8.49369
239 2 8.60742 10.312 0.576946
240 2 8.69537 11.7883 0.0583599
241 2 1.42282 1.68337 7.50469
242 2 1.60998 2.65673 8.73322
243 2 8.87953 5.11923 12.1645
244 2 8.03029 6.40716 12.1505
245 2 1.95332 8.95172 9.16853
246 2 1.28006 10.1574 8.3047
247 2 11.2632 11.2403 2.79611
248 2 10.7957 9.70539 2.72449
249 2 11.5653 5.40273 -0.288322
250 2 11.1896 4.32648 14.2564
251 2 10.4204 6.65681 9.62663
252 2 10.2607 6.46258 11.0571
253 2 5.87632 10.1769 10.5904
254 2 4.94364 10.8143 9.46912
255 2 7.91802 7.6928 0.604333
256 2 7.17835 8.74025 1.63464
257 2 14.2008 7.92642 9.35992
258 2 -0.267797 8.44072 8.55252
259 2 6.16366 14.3915 3.8125
260 2 4.75946 14.0077 3.26281
261 2 6.35085 1.60272 6.90857
262 2 4.84301 1.75402 6.76165
263 2 1.34137 0.662419 9.62968
264 2 0.817817 14.7755 10.0578
265 2 10.8342 13.0339 1.10914
266 2 12.2496 13.5788 1.43103
267 2 7.99168 4.93257 10.0429
268 2 8.59208 4.87508 8.55834
269 2 -0.0863874 13.5026 5.64494
270 2 0.00602987 12.1735 6.56287
271 2 6.0476 11.6847 7.84187
272 2 4.65027 12.2574 7.8746
273 2 -0.10786 7.21382 14.4417
274 2 1.40859 7.20909 13.8607
275 2 1.10879 5.19843 12.1297
276 2 0.142322 4.18446 11.4107
277 2 0.192301 0.569522 11.8253
278 2 0.262058 0.216297 13.3227
279 2 13.325 12.966 5.76917
280 2 12.474 12.1815 6.79075
281 2 6.96454 1.33987 0.72514
282 2 6.22808 -0.0168944 1.14781
283 2 5.28424 6.95392 7.95734
284 2 5.69738 8.44349 7.79401
285 2 4.59695 2.96295 -0.156096
286 2 4.05776 3.8329 1.0606
287 2 14.2623 2.20361 0.861912
288 2 14.7961 2.02476 15.1013
289 2 7.90736 0.984376 2.41964
290 2 8.42535 2.08554 3.23522
291 2 9.33834 3.30929 9.83257
292 2 10.1754 1.88055 10.1119
293 2 1.75381 4.52695 9.90946
294 2 1.11552 4.78978 8.54253
295 2 12.2645 0.0873025 4.07993
296 2 12.0334 14.6435 5.15054
297 2 9.97133 5.30379 5.02216
298 2 9.51596 4.30903 3.95105
299 2 9.11176 6.41377 14.7882
300 2 7.57568 6.54 14.599
301 2 2.07189 2.92609 11.9449
302 2 2.69894 1.52435 11.845
303 2 10.8501 14.3815 10.4642
304 2 10.5118 -0.206863 11.478
305 2 0.274248 12.7719 0.61942
306 2 0.108425 11.2293 1.22179
307 2 9.70727 2.84376 13.3266
308 2 10.3129 3.49932 12.1129
309 2 7.16744 3.93944 3.6373
310 2 7.68964 3.77425 2.12389
311 2 2.7812 12.2345 3.34142
312 2 4.17512 12.108 2.65722
313 2 13.4252 2.63657 7.76521
314 2 14.4885 3.85196 7.85505
315 2 1.16553 7.50623 0.684607
316 2 1.80702 6.9489 2.01705
317 2 14.4305 9.58843 13.243
318 2 13.0187 10.0336 13.4694
319 2 5.70123 2.57075 8.68482
320 2 6.80813 3.05178 9.52933
321 2 5.35787 4.80808 5.12533
322 2 5.96938 3.53575 5.71789
323 2 13.0854 2.74416 13.3668
324 2 13.871 1.59988 12.7008
325 2 8.54415 7.16809 5.28465
326 2 9.76316 8.11779 5.62097
327 2 3.5805 7.58031 10.0651
328 2 3.76188 9.05652 10.3377
329 2 4.55808 11.8882 11.3243
330 2 3.56374 12.075 12.5347
331 2 0.334551 11.7965 12.6005
332 2 0.24849 12.8839 13.5924
333 2 6.35726 8.22802 5.65351
334 2 6.38531 8.12785 4.02112
335 2 10.214 9.5859 10.0692
336 2 10.6644 8.57403 11.1276
337 2 8.95214 14.8857 9.64428
338 2 7.3584 14.7538 9.70982
339 2 0.591563 15.0693 0.0182509
340 2 1.70203 14.3696 14.7724
341 2 6.4741 3.89198 0.306924
342 2 7.8908 4.74294 0.474307
343 2 13.7745 5.25403 11.174
344 2 12.6407 6.3597 11.1641
345 2 6.61181 10.3071 13.1711
346 2 7.38294 10.2018 14.4287
347 2 5.92965 6.53312 13.3142
348 2 6.65131 8.00804 13.4902
349 2 4.1508 10.9057 6.58172
350 2 3.72612 9.43762 6.27968
351 2 0.960879 1.05271 5.33877
352 2 1.48012 2.49213 5.40543
353 2 8.71011 13.4532 1.93204
354 2 8.99593 13.78 0.520382
355 2 3.28533 0.709593 5.89467
356 2 4.52263 -0.105961 5.1872
357 2 10.8957 8.12501 1.5533
358 2 9.392 8.09909 2.00114
359 2 2.85608 14.8006 10.6062
360 2 3.90293 13.7417 11.0449
361 2 6.48734 12.6937 1.54518
362 2 7.04029 11.6822 2.67807
363 2 2.24681 10.7375 14.3261
364 2 3.668 10.6767 14.8241
365 2 12.3482 3.69431 0.972113
366 2 13.2921 3.83378 2.19605
367 2 12.5073 12.8061 9.60602
368 2 12.5354 13.311 11.1419
369 2 13.9506 6.55755 12.8999
370 2 13.4462 7.1125 14.3857
371 2 11.8334 1.45816 2.05064
372 2 10.4376 0.894116 2.52875
373 2 0.844146 1.54638 0.605455
374 2 2.39804 1.38307 0.478242
375 2 7.77884 0.12269 7.66547
376 2 8.60235 1.23456 6.91956
377 2 12.4122 11.5105 0.551261
378 2 13.9301 11.2794 0.187093
379 2 13.8259 3.47873 9.96028
380 2 13.5184 3.1733 11.5056
381 2 12.9666 3.11167 5.2382
382 2 12.0906 4.05916 4.29522
383 2 5.48443 10.7696 1.07083
384 2 5.47524 10.05 -0.286949
ITEM: TIMESTEP
200
ITEM: NUMBER OF ATOMS
384
ITEM: BOX BOUNDS pp pp pp
-2.1868351273538700e-01 1.5218683512735430e+01
-2.1868351273538700e-01 1.5218683512735430e+01
-2.1868351273538700e-01 1.5218683512735430e+01
ITEM: ATOMS id type x y z
1 1 4.47781 5.6572 13.1468
2 1 14.5275 3.91078 13.9286
3 1 7.61306 10.6085 3.75932
4 1 1.75079 3.76535 4.55905
5 1 13.6845 10.1655 10.2749
6 1 9.96763 0.235852 -0.00556954
7 1 13.3169 9.65709 6.05825
8 1 3.33942 13.5492 7.6556
9 1 3.17203 6.49444 2.9078
10 1 5.55807 7.85529 2.54566
11 1 13.8168 6.54529 1.85158
12 1 0.572416 10.084 13.797
13 1 14.9574 5.39998 4.87966
14 1 9.86982 5.92867 7.84931
15 1 12.2398 6.97233 3.99417
16 1 9.95182 2.73416 6.79579
17 1 4.7251 3.89676 11.2221
18 1 7.32836 10.4117 11.4009
19 1 8.3765 1.99069 14.4353
20 1 5.8284 13.963 0.591119
21 1 -0.150777 13.3167 10.044
22 1 12.5097 1.8372 6.2547
23 1 10.6299 7.07818 14.1836
24 1 1.92451 7.84381 6.32873
25 1 10.3889 9.18215 5.78447
26 1 15.1552 8.19414 4.72606
27 1 1.74757 11.434 4.38105
28 1 5.94476 0.276133 10.5325
29 1 12.2551 8.054 0.335177
30 1 2.27791 6.60174 12.2989
31 1 3.4839 5.76612 5.32747
32 1 7.69149 11.9096 7.86139
33 1 3.12572 3.6141 2.21522
34 1 3.02236 13.3309 0.15371
35 1 -0.0354516 5.3016 7.63192
36 1 10.6918 14.538 7.36799
37 1 1.26278 14.5174 2.3077
38 1 6.08341 0.453495 13.2868
39 1 0.357861 9.90709 2.69129
40 1 12.2349 13.1249 12.5156
41 1 0.975859 12.234 8.04295
42 1 13.44 14.2897 0.216212
43 1 -0.0602386 15.0282 4.5406
44 1 8.56288 12.7263 11.7913
45 1 12.4815 6.31129 6.77256
46 1 9.73228 10.2684 8.2525
47 1 10.4293 11.0148 12.84
48 1 8.83008 12.3111 5.37997
49 1 3.93805 1.62811 14.2823
50 1 6.51636 13.2308 13.4507
51 1 4.0959 5.97636 9.31186
52 1 11.2766 0.0374187 13.1025
53 1 7.58194 14.1883 3.51358
54 1 4.67267 2.11573 3.57205
55 1 12.2735 11.1986 8.39758
56 1 8.82044 10.5173 -0.204215
57 1 1.65287 1.80761 8.36807
58 1 8.51971 5.53793 11.5658
59 1 1.20724 9.17375 8.54177
60 1 10.4601 10.5345 3.34111
61 1 11.5243 4.29305 14.8467
62 1 10.5492 6.90391 10.4924
63 1 4.85774 10.1828 10.0963
64 1 8.00557 8.02532 1.28795
65 1 14.2892 7.50641 8.64038
66 1 4.92099 14.8061 3.71732
67 1 5.81195 1.92355 6.81982
68 1 1.32411 0.434563 10.3825
69 1 11.4726 12.3811 1.75786
70 1 8.24303 4.20338 9.37422
71 1 15.1535 12.4991 5.65534
72 1 4.91883 11.3319 7.5821
73 1 0.924882 7.49445 14.3115
74 1 1.07965 4.27539 11.7423
75 1 -0.0822268 0.590862 12.7566
76 1 12.4921 12.5508 6.03059
77 1 6.21041 1.04012 1.50715
78 1 5.53808 8.07234 6.97391
79 1 4.53577 3.9759 -0.215276
80 1 14.4414 1.8334 0.312752
81 1 8.52724 1.35611 2.61821
82 1 10.128 2.53717 10.307
83 1 1.84429 4.42402 8.84381
84 1 12.7067 15.1666 4.26151
85 1 10.2333 4.77093 4.87353
86 1 8.34738 6.36143 14.9615
87 1 2.80987 2.20677 12.0703
88 1 9.93916 14.7525 10.7681
89 1 15.1618 11.2835 0.774939
90 1 9.6905 3.55027 12.745
91 1 7.92797 3.84702 3.55221
92 1 3.30221 12.6387 2.67216
93 1 13.4646 3.58569 8.20722
94 1 0.769083 7.5128 1.67969
95 1 13.4287 10.0276 12.6919
96 1 6.18619 2.76668 9.29057
97 1 5.77661 3.94959 5.1744
98 1 13.0791 1.82706 12.6612
99 1 8.91726 7.00736 5.44807
100 1 3.15418 8.15864 10.2939
101 1 4.46199 12.2518 12.0454
102 1 0.661519 12.6849 12.3945
103 1 6.79702 8.46986 4.68542
104 1 9.75137 9.50428 10.7807
105 1 7.92998 14.463 8.94063
106 1 0.820897 14.3513 14.5115
107 1 7.34754 3.89126 0.281109
108 1 13.3271 6.6743 10.8868
109 1 6.65618 9.54573 13.6156
110 1 6.70402 6.91993 13.1484
111 1 3.57201 9.82327 5.58737
112 1 1.55241 1.232 5.73044
113 1 9.12584 13.2292 0.995622
114 1 3.95523 0.188063 6.07697
115 1 10.4361 8.07526 2.35014
116 1 3.72195 14.2541 10.2969
117 1 5.65473 11.6175 2.18176
118 1 3.18461 11.0762 14.2209
119 1 12.3385 2.95479 1.56696
120 1 12.5274 13.6549 10.0554
121 1 13.9189 6.51467 13.5931
122 1 11.1911 0.830616 2.43619
123 1 1.79101 1.40762 1.03431
124 1 8.09001 0.665666 6.70398
125 1 12.682 10.6586 -0.133808
126 1 14.031 3.81065 10.7646
127 1 12.5742 4.15825 4.05336
128 1 4.95508 9.66952 0.425549
129 2 4.62556 4.90033 12.5744
130 2 4.34448 5.24281 13.9369
131 2 14.3078 4.74494 13.9646
132 2 -0.204392 3.94896 13.3913
133 2 7.17003 9.8859 4.16535
134 2 8.57394 10.4043 3.32766
135 2 1.04766 4.48487 4.51602
136 2 2.20005 3.80654 3.7325
137 2 14.4076 10.9194 10.2774
138 2 13.3283 10.2887 11.2669
139 2 10.3218 0.608546 0.875113
140 2 9.23516 0.884755 15.1846
141 2 13.3042 9.66633 7.04733
142 2 13.281 10.4984 5.72551
143 2 3.54219 13.9368 8.57993
144 2 3.68126 14.0968 6.90825
145 2 2.81783 5.93061 2.27988
146 2 3.25829 6.24895 3.83898
147 2 5.2444 8.68279 2.01006
148 2 4.7864 7.2468 2.56825
149 2 13.2697 6.69465 2.66341
150 2 14.7812 6.78182 2.02061
151 2 0.802332 9.15397 13.7315
152 2 0.354968 10.2141 14.7188
153 2 13.9086 5.06521 4.57246
154 2 14.9558 6.30675 4.69764
155 2 10.716 6.17465 7.33776
156 2 9.37972 6.66768 7.39067
157 2 12.4448 6.9548 4.96119
158 2 11.3932 7.69788 3.87046
159 2 9.66068 3.0859 7.71546
160 2 9.95589 3.59633 6.18063
161 2 4.1909 3.10132 11.2213
162 2 5.39962 3.68744 10.5019
163 2 8.26311 9.9595 11.4155
164 2 7.51175 11.337 11.2281
165 2 8.14431 2.66729 15.055
166 2 7.53228 1.70929 13.9136
167 2 6.33498 13.7371 15.1637
168 2 4.8019 14.0821 0.40192
169 2 14.5355 13.595 10.057
170 2 0.252997 13.1361 10.9725
171 2 11.4437 1.94763 6.38065
172 2 12.7045 0.976167 5.65266
173 2 10.9907 7.33247 13.2886
174 2 11.1862 7.81321 14.7404
175 2 1.30401 7.76989 5.54729
176 2 1.47777 8.34859 7.10983
177 2 11.4186 9.12666 5.77223
178 2 10.349 9.79728 4.96133
179 2 14.4426 8.80622 5.15827
180 2 0.051703 8.77321 3.84145
181 2 1.06644 11.82 5.0263
182 2 2.35958 10.8446 4.83318
183 2 6.05336 1.13157 9.91296
184 2 5.08165 -0.162242 10.3646
185 2 12.5949 9.05866 0.168806
186 2 13.1012 7.35844 0.771302
187 2 2.37531 7.27308 11.5498
188 2 2.98279 6.1248 12.6274
189 2 3.16017 6.42563 5.86624
190 2 3.05338 4.82782 5.32775
191 2 7.67299 12.9125 8.36831
192 2 8.02099 11.9923 7.02867
193 2 2.45762 2.97404 1.79284
194 2 3.82298 2.76637 2.75947
195 2 2.98706 12.2679 15.0118
196 2 3.01118 12.9835 1.1775
197 2 -0.0675504 5.69573 6.53474
198 2 14.8871 6.25865 7.83712
199 2 11.3453 -0.11134 7.457
200 2 11.1233 13.8118 7.05825
201 2 1.96799 14.0911 2.62361
202 2 1.73069 15.2155 1.63615
203 2 6.22131 14.7648 13.3489
204 2 5.93032 0.304287 12.3496
205 2 0.744492 9.06672 2.26014
206 2 0.758867 10.4781 3.43027
207 2 11.6415 13.9749 12.6971
208 2 11.5843 12.386 12.518
209 2 1.90372 12.7284 7.88316
210 2 0.359869 12.8741 8.72962
211 2 13.4204 15.18 0.428792
212 2 13.2531 14.3034 14.6554
213 2 14.4656 -0.122368 4.33742
214 2 0.345308 14.7503 3.59528
215 2 8.94426 13.3734 11.1609
216 2 9.42814 12.2999 12.2733
217 2 12.9183 6.72946 7.3519
218 2 12.9359 5.37984 6.7071
219 2 8.70742 10.7575 8.03342
220 2 9.7007 9.76385 7.48078
221 2 10.2785 10.3231 12.2419
222 2 10.0676 10.6443 13.4887
223 2 9.88322 12.2032 5.16758
224 2 8.36594 11.6557 4.92905
225 2 4.76669 0.957783 14.0768
226 2 3.51422 1.83028 13.4441
227 2 7.46508 12.8379 13.1132
228 2 5.89131 13.0473 12.7848
229 2 3.34226 5.27674 8.99164
230 2 4.73778 5.49836 9.79126
231 2 10.8699 0.279161 14.0774
232 2 11.9259 0.630807 12.8605
233 2 8.0206 15.0257 3.37496
234 2 7.97554 13.9101 4.2942
235 2 5.22303 1.66078 2.77697
236 2 5.31288 2.72651 4.00181
237 2 12.585 10.8811 9.34507
238 2 11.2952 10.8836 8.29709
239 2 8.38766 9.96064 0.423812
240 2 8.86111 11.5522 0.094583
241 2 1.39597 1.60058 7.40745
242 2 1.75256 2.7926 8.431
243 2 8.96081 4.67833 12.1316
244 2 7.77076 6.09008 12.1237
245 2 1.6143 8.86265 9.3395
246 2 1.42275 10.2279 8.41813
247 2 10.9859 11.3113 2.86585
248 2 10.6987 9.63793 2.89342
249 2 11.1784 5.25178 14.9809
250 2 11.0569 3.9097 13.9608
251 2 10.5885 6.39436 9.58291
252 2 9.66236 6.50764 10.8476
253 2 5.80898 10.1136 10.1613
254 2 4.6429 10.7987 9.20021
255 2 8.05568 7.32926 0.436677
256 2 7.1471 8.10071 2.00066
257 2 13.9664 7.31454 9.69047
258 2 -0.183814 8.10931 8.84258
259 2 5.87479 14.4659 3.96691
260 2 4.50133 13.9819 3.51993
261 2 6.58948 1.33987 6.6048
262 2 4.88112 1.31711 6.72851
263 2 1.35454 0.960792 9.60889
264 2 0.903426 15.0658 10.1959
265 2 10.7081 12.6295 1.34446
266 2 12.1611 12.9438 1.69144
267 2 8.22553 4.98232 10.3019
268 2 8.57482 4.9303 8.77133
269 2 15.2057 13.4136 5.32705
270 2 0.126795 12.417 6.44329
271 2 5.88705 11.4719 7.44512
272 2 4.4694 12.1357 7.41045
273 2 -0.102437 7.3623 14.322
274 2 1.3596 7.1308 13.6142
275 2 1.51325 5.12436 11.8835
276 2 0.302685 4.35059 11.2927
277 2 0.425794 0.528013 11.9659
278 2 0.618452 0.342458 13.3132
279 2 13.4514 12.5591 5.70608
280 2 12.4245 11.9445 6.81293
281 2 6.24625 1.50986 0.690486
282 2 6.10008 0.0608984 1.30577
283 2 5.15602 7.24497 7.29876
284 2 4.8768 8.715 7.27969
285 2 4.29862 3.0579 14.7826
286 2 4.10577 4.00514 0.626225
287 2 13.8872 2.23051 0.845699
288 2 14.7019 2.53503 15.1657
289 2 7.81752 1.23966 2.14522
290 2 8.50274 2.42871 3.09061
291 2 9.78467 2.96973 9.44801
292 2 10.2648 1.62838 10.0304
293 2 1.45017 4.53787 9.79951
294 2 1.04075 4.83733 8.3428
295 2 12.1037 -0.0167003 3.60298
296 2 12.3746 14.5318 4.75114
297 2 9.79142 5.85817 4.92168
298 2 9.57034 4.31995 4.32824
299 2 9.23826 6.70933 14.5379
300 2 7.52274 6.51397 14.2981
301 2 2.08374 3.01075 12.0174
302 2 2.47756 1.53907 11.4406
303 2 10.8432 14.6563 10.345
304 2 10.2576 15.0024 11.5747
305 2 -0.0842384 12.2401 0.951652
306 2 -0.106541 10.816 1.65372
307 2 9.21531 2.79713 13.3308
308 2 10.2078 3.202 11.9322
309 2 7.05657 4.02766 4.0975
310 2 7.6747 4.25067 2.79452
311 2 2.56405 12.1707 3.31828
312 2 4.18725 12.0408 2.55329
313 2 13.2616 2.75264 7.56324
314 2 14.349 4.11278 8.22041
315 2 1.09796 7.37224 0.764411
316 2 1.41697 7.17796 2.3632
317 2 14.3235 10.0573 12.9868
318 2 12.9767 10.4547 13.399
319 2 5.94668 2.59322 8.28917
320 2 6.9016 3.44797 9.31663
321 2 5.01731 4.598 5.37847
322 2 5.74634 3.33801 5.91966
323 2 13.0622 2.52852 13.3269
324 2 13.9592 1.23507 12.7642
325 2 8.15424 7.16778 4.79345
326 2 9.49153 8.05821 5.45419
327 2 3.54527 7.34672 10.1653
328 2 3.83066 8.85534 10.1886
329 2 4.56776 11.6897 11.3013
330 2 3.96671 11.8741 12.7804
331 2 0.317799 11.7419 12.9171
332 2 0.413988 13.3297 12.9341
333 2 6.2912 8.54763 5.5385
334 2 6.18913 8.16169 3.88703
335 2 9.72089 9.84458 9.95319
336 2 9.92696 8.48129 10.6703
337 2 8.731 14.9014 9.57579
338 2 7.02417 14.6758 9.56957
339 2 0.369493 14.7919 15.2024
340 2 1.80824 14.0793 14.9908
341 2 6.1719 4.04476 0.28869
342 2 7.69951 4.78554 0.433556
343 2 13.6484 5.70082 10.7196
344 2 12.3097 6.60517 10.5931
345 2 6.82865 9.98209 12.7818
346 2 7.48054 9.68999 14.199
347 2 5.73826 6.4011 13.0063
348 2 6.71684 8.12037 13.1911
349 2 3.7126 10.4241 6.323
350 2 2.84472 9.13292 5.97141
351 2 0.764657 0.478224 5.23486
352 2 1.47211 2.07364 5.31249
353 2 8.84749 13.4451 1.85494
354 2 9.32134 14.0826 0.410026
355 2 2.90339 0.44557 6.02455
356 2 4.22832 -0.115744 5.05481
357 2 11.1145 7.95371 1.62601
358 2 9.55864 7.87931 1.89131
359 2 2.96137 14.7396 10.4283
360 2 4.03082 13.6276 11.0163
361 2 5.94975 12.4012 1.68251
362 2 6.46922 11.1717 2.82652
363 2 2.30544 10.7106 14.1548
364 2 3.77617 10.5448 14.7986
365 2 11.9564 3.48775 0.840689
366 2 12.5345 3.51048 2.32614
367 2 12.3151 13.0608 9.52618
368 2 12.4564 13.3318 11.122
369 2 13.6985 6.76146 12.71
370 2 13.1115 6.64033 14.1229
371 2 11.5023 1.68728 2.06424
372 2 10.3649 1.16415 2.83883
373 2 0.806741 1.5457 0.893759
374 2 2.04349 1.12949 0.205462
375 2 8.07087 0.0861863 7.57185
376 2 8.877 1.35832 6.84946
377 2 12.199 11.1008 0.677333
378 2 13.7444 10.636 0.259414
379 2 13.6605 3.57101 9.82835
380 2 13.4838 2.89887 11.3126
381 2 12.4636 3.35704 4.49746
382 2 11.5859 4.50011 4.22442
383 2 5.48068 10.4303 0.839747
384 2 5.4041 9.50082 15.0756
ITEM: TIMESTEP
400
ITEM: NUMBER OF ATOMS
384
ITEM: BOX BOUNDS pp pp pp
-1.3021218416963443e-01 1.5130212184169675e+01
-1.3021218416963443e-01 1.5130212184169675e+01
-1.3021218416963443e-01 1.5130212184169675e+01
ITEM: ATOMS id type x y z
1 1 4.53662 5.47264 12.6211
2 1 14.5687 3.8231 14.0903
3 1 7.30412 10.8111 3.50133
4 1 1.72281 3.53854 4.43384
5 1 13.5588 9.59456 9.91589
6 1 9.4645 0.0350451 15.0331
7 1 13.3376 9.79792 6.42929
8 1 3.42246 13.0132 7.89707
9 1 3.41043 6.05164 2.43227
10 1 5.53687 7.50462 2.07524
11 1 13.825 6.66008 2.02516
12 1 0.57238 10.1075 13.9574
13 1 15.1286 5.25761 4.83746
14 1 9.58494 6.43568 8.0647
15 1 12.229 6.82906 4.48676
16 1 10.2371 2.63145 6.76754
17 1 4.62514 3.76129 10.63
18 1 6.84347 10.4667 11.1344
19 1 7.96129 2.01834 14.4554
20 1 5.74871 13.5037 0.511129
21 1 15.0786 13.3653 10.0751
22 1 12.2912 1.92287 5.67045
23 1 10.7979 6.40719 13.4773
24 1 2.03018 7.9875 6.43027
25 1 10.7271 9.06205 5.71
26 1 15.0422 7.94537 4.7668
27 1 1.64877 11.2585 4.55641
28 1 5.94272 0.544728 10.4411
29 1 12.2647 7.81921 0.073429
30 1 2.0363 6.42613 12.1232
31 1 3.29225 5.64474 5.2545
32 1 7.5011 11.8926 7.72952
33 1 3.18634 3.4946 1.81751
34 1 3.25381 12.95 0.010143
35 1 -0.0448749 4.96123 7.48916
36 1 10.5382 14.6721 7.26376
37 1 1.03425 14.2071 1.76063
38 1 5.86969 0.873939 13.0272
39 1 0.336966 9.72037 2.8866
40 1 12.2847 13.0163 12.3765
41 1 1.12801 11.8914 8.14814
42 1 13.4829 13.8639 15.0885
43 1 15.0108 14.8252 4.17699
44 1 8.37067 12.7297 11.9102
45 1 11.9828 5.94388 7.12661
46 1 9.68895 10.2794 7.97573
47 1 10.092 10.9773 12.8161
48 1 8.5699 12.3758 5.30867
49 1 3.66454 1.70926 13.92
50 1 6.10955 13.4382 13.2353
51 1 4.15028 6.1491 8.73713
52 1 11.1921 0.133438 12.8876
53 1 7.42224 13.9977 3.51928
54 1 4.61201 2.13689 3.74384
55 1 12.1596 11.2544 8.53799
56 1 8.91092 10.237 0.0389504
57 1 2.05197 1.45494 8.21022
58 1 8.50383 5.24484 11.6376
59 1 0.687974 9.48058 8.78808
60 1 10.1087 10.5728 3.67973
61 1 11.6082 3.86091 14.4025
62 1 10.0742 7.06914 10.5387
63 1 4.5682 10.0479 9.79084
64 1 8.15713 8.09721 1.5046
65 1 14.021 7.22995 8.11179
66 1 4.92257 14.7271 3.76402
67 1 5.76719 1.79454 6.50091
68 1 1.42878 0.14522 10.3156
69 1 11.2173 12.5358 1.92895
70 1 8.80112 3.93474 9.25388
71 1 15.0698 12.6332 5.69742
72 1 5.04846 11.0451 7.21794
73 1 0.852614 7.57814 14.1945
74 1 0.56871 4.21118 11.5746
75 1 15.0959 0.686558 12.6103
76 1 12.3807 12.7446 5.95407
77 1 6.2464 1.07004 1.07576
78 1 5.57587 7.99036 7.46114
79 1 4.75725 3.99268 14.9954
80 1 14.5123 1.68583 0.593474
81 1 8.20568 1.21509 3.04703
82 1 10.2875 2.0631 10.5493
83 1 2.01568 4.14668 8.85625
84 1 12.3571 14.9405 4.29165
85 1 9.71256 4.56444 4.87364
86 1 8.31413 6.17106 14.7969
87 1 2.60379 2.20077 11.5854
88 1 10.1485 14.5452 10.639
89 1 14.8003 11.3676 0.987164
90 1 9.72183 3.23928 12.7744
91 1 7.60978 3.73917 3.46593
92 1 3.1424 12.7613 2.77275
93 1 13.1234 3.75404 7.94068
94 1 1.22516 7.67838 1.64216
95 1 13.2822 9.84034 12.6884
96 1 6.47627 2.79712 8.89925
97 1 6.0506 4.46546 5.62909
98 1 12.7757 2.15726 12.5361
99 1 8.70775 7.18624 5.76334
100 1 2.87645 8.14649 9.9857
101 1 4.27424 12.0865 11.7439
102 1 1.00066 12.2671 12.0981
103 1 6.44473 8.37872 4.6527
104 1 9.22885 9.55705 10.6099
105 1 7.62477 14.3819 8.65927
106 1 1.05198 14.0173 14.1056
107 1 7.02135 3.98546 1.04636
108 1 12.5748 6.54531 11.0183
109 1 6.92717 9.45697 13.6302
110 1 6.7444 6.95328 12.7789
111 1 3.85246 9.66181 4.99457
112 1 1.4063 1.10121 5.70205
113 1 8.83012 12.9744 1.28238
114 1 3.67873 15.0571 6.32223
115 1 10.7902 8.26757 2.53803
116 1 3.82544 14.1888 10.1721
117 1 5.1931 11.339 1.7657
118 1 3.21479 10.8119 13.9795
119 1 12.1456 2.98032 1.76164
120 1 12.3476 13.4642 9.88493
121 1 13.7762 6.71622 13.3463
122 1 10.7213 0.675405 2.45706
123 1 1.73864 1.54343 0.879667
124 1 8.21718 0.770481 5.97474
125 1 12.3837 10.4477 0.137604
126 1 13.3496 4.05101 10.6738
127 1 12.9558 3.96786 4.39862
128 1 4.75887 9.50182 0.160755
129 2 4.77199 4.84483 11.7865
130 2 4.53648 5.11744 13.5043
131 2 14.0077 4.50932 14.1757
132 2 -0.108506 4.16673 13.116
133 2 7.31969 9.91841 3.84621
134 2 8.12435 10.8089 2.94329
135 2 1.0474 4.21581 4.36244
136 2 2.14686 3.30141 3.69963
137 2 14.4445 9.42097 9.6706
138 2 13.4618 9.46814 10.8232
139 2 9.91244 0.453236 0.53804
140 2 8.7768 0.850743 14.8632
141 2 13.339 10.1615 7.29169
142 2 13.6019 10.5245 5.83255
143 2 3.58788 13.4859 8.69035
144 2 3.58965 13.6608 7.20235
145 2 3.18174 5.16457 2.3463
146 2 3.36745 6.16656 3.4333
147 2 5.2174 8.32794 1.61549
148 2 4.86631 6.82409 2.08693
149 2 13.4174 6.92354 2.86561
150 2 14.6909 6.88303 1.98118
151 2 0.758227 9.17445 14.0754
152 2 0.156545 10.3431 14.8073
153 2 14.4448 4.61643 4.73335
154 2 14.9884 6.17216 4.35429
155 2 10.4909 6.12757 7.80497
156 2 9.1431 6.83427 7.23128
157 2 12.1191 6.47039 5.37544
158 2 11.5849 7.41647 3.96175
159 2 9.98948 2.7881 7.68308
160 2 9.96456 3.38342 6.35273
161 2 4.16376 2.84197 10.8474
162 2 5.02175 3.43268 9.88272
163 2 7.62762 9.82322 10.8183
164 2 7.32121 11.5195 11.2426
165 2 7.72087 2.68692 -0.071576
166 2 7.19427 1.98764 14.0291
167 2 6.15361 13.4579 14.8431
168 2 4.84859 13.6183 0.245843
169 2 14.2084 13.6629 10.0275
170 2 0.164819 12.834 10.9948
171 2 11.338 1.99179 6.09105
172 2 12.5865 1.11644 5.33765
173 2 11.1462 6.28711 12.5469
174 2 11.3567 6.7589 14.3253
175 2 1.14575 7.96976 5.8409
176 2 1.68491 8.46529 7.29118
177 2 11.747 9.09459 5.9711
178 2 10.5823 9.66323 4.90421
179 2 14.1845 8.11755 4.91424
180 2 15.0797 8.48189 3.90459
181 2 0.943886 11.7575 5.24715
182 2 2.39617 10.6748 4.88047
183 2 6.06662 1.15022 9.85941
184 2 5.17944 15.0106 10.1846
185 2 12.2982 8.82235 0.0834715
186 2 12.8133 7.50268 0.859699
187 2 2.36248 7.12446 11.4907
188 2 2.89683 5.93962 12.2845
189 2 2.70253 6.34569 5.70714
190 2 2.79717 4.94369 5.04758
191 2 7.46954 12.5303 8.54869
192 2 7.91221 12.2653 6.81133
193 2 2.5334 2.81417 1.28603
194 2 3.88471 2.72369 2.09327
195 2 3.45452 11.9124 14.8259
196 2 3.16905 12.7129 0.941195
197 2 -0.058161 5.16131 6.56798
198 2 15.1225 6.02237 7.79471
199 2 10.8417 14.701 8.2691
200 2 11.0546 14.0104 6.95226
201 2 1.85265 13.9516 2.02923
202 2 1.24439 15.0826 1.20407
203 2 6.03687 15.1297 13.4051
204 2 6.06166 0.771578 11.9524
205 2 0.999973 9.01152 2.36674
206 2 1.12949 10.2556 3.26369
207 2 11.7131 13.7186 12.7695
208 2 11.8966 12.2738 12.827
209 2 2.06351 12.2375 8.08018
210 2 0.552167 12.5446 8.77031
211 2 13.5926 14.9238 14.8677
212 2 13.3255 13.2525 14.2175
213 2 14.045 15.0066 4.04001
214 2 0.0928886 14.6692 3.17592
215 2 8.80584 13.1992 11.2676
216 2 9.18719 12.2336 12.3248
217 2 12.7387 6.44094 7.59439
218 2 12.4199 5.04116 7.32821