ITEM: TIMESTEP
0
ITEM: NUMBER OF ATOMS
384
ITEM: BOX BOUNDS pp pp pp
-3.1180958401302572e-01 1.5311809584013066e+01
-3.1180958401302572e-01 1.5311809584013066e+01
-3.1180958401302572e-01 1.5311809584013066e+01
ITEM: ATOMS id type x y z
1 1 4.57679 5.50123 13.6944
2 1 14.8875 3.66367 14.1079
3 1 8.20115 10.8513 3.91518
4 1 1.55859 4.11103 4.68534
5 1 14.0046 11.0534 10.4291
6 1 10.1562 -0.0244194 -0.0179537
7 1 13.1461 9.78511 5.92123
8 1 3.48566 13.6848 7.87681
9 1 3.32305 6.30373 3.20589
10 1 5.30735 8.37688 2.36991
11 1 13.7801 6.32188 1.70807
12 1 0.692367 10.1945 14.1186
13 1 15.0627 5.43363 4.6639
14 1 9.98456 5.97612 7.92121
15 1 12.4056 7.19481 3.96576
16 1 9.83562 2.64919 6.79506
17 1 4.60459 4.17249 11.4106
18 1 7.55062 10.3381 11.1669
19 1 8.27543 1.89543 14.4455
20 1 5.83253 14.0038 0.549654
21 1 -0.277952 13.5963 10.2649
22 1 12.6457 2.09652 6.28487
23 1 10.7129 7.40871 14.2399
24 1 2.2119 7.88472 6.40809
25 1 10.4542 9.69036 5.97773
26 1 -0.282536 8.22967 4.81222
27 1 1.6652 11.2607 4.20606
28 1 6.17365 -0.094545 10.725
29 1 12.1932 8.4542 0.381712
30 1 2.29814 6.67565 12.652
31 1 3.74006 5.65533 5.77839
32 1 7.64075 12.3667 7.75101
33 1 2.57949 3.81144 2.08856
34 1 3.31976 13.3432 0.0677147
35 1 -0.0967938 5.37115 7.46928
36 1 11.1426 14.5448 7.59235
37 1 1.26174 14.8074 2.57217
38 1 6.41618 0.335516 13.3898
39 1 0.207637 9.92258 2.18818
40 1 12.6731 13.1901 12.8323
41 1 1.29363 11.9761 7.9846
42 1 13.2286 14.8362 0.439531
43 1 -0.123887 15.1905 5.01064
44 1 8.80795 12.7708 12.0788
45 1 12.4172 6.75949 6.79319
46 1 9.49869 10.6014 8.40823
47 1 10.544 10.9934 13.3575
48 1 8.99001 12.8372 5.44675
49 1 4.04829 1.51716 14.6149
50 1 6.69928 13.1999 13.7041
51 1 4.43379 6.10378 9.26553
52 1 11.4216 -0.0969869 13.0672
53 1 8.10878 14.4288 3.40524
54 1 4.3962 2.37166 3.28729
55 1 12.1316 11.4523 8.45349
56 1 8.7458 10.8517 -0.213292
57 1 1.53862 1.7361 8.48855
58 1 8.69585 5.89847 11.616
59 1 1.22107 9.19196 8.49846
60 1 10.635 10.5731 3.14594
61 1 11.4957 4.51089 15.2148
62 1 10.9209 6.7156 10.446
63 1 4.94638 10.4223 10.3546
64 1 7.94749 8.55464 1.09697
65 1 14.5919 7.80968 8.4877
66 1 5.26248 14.7619 3.62401
67 1 5.62202 2.26942 6.97039
68 1 1.29568 -0.0251437 10.348
69 1 11.6689 12.7598 1.5126
70 1 8.10674 4.34492 9.29769
71 1 15.2574 12.5827 5.71394
72 1 5.13758 11.4238 7.95676
73 1 0.807368 7.59384 14.5622
74 1 1.07308 4.35508 11.6836
75 1 -0.103901 0.899318 12.6958
76 1 12.4336 12.7126 5.99741
77 1 6.5124 0.898083 1.44852
78 1 5.22926 7.74021 7.34722
79 1 4.69818 3.85809 0.25821
80 1 14.6318 1.53081 0.260033
81 1 8.7843 1.26425 2.88569
82 1 10.1715 2.86217 10.2074
83 1 1.97586 4.56417 8.94346
84 1 12.6683 15.2799 4.82665
85 1 10.1623 4.44247 4.67024
86 1 8.26116 6.29332 15.2182
87 1 2.75694 2.33071 12.3211
88 1 10.1168 15.0402 10.6766
89 1 0.0214213 11.8389 0.424274
90 1 9.92368 3.73613 12.9889
91 1 7.93039 3.8304 3.09944
92 1 3.45334 12.7245 2.72154
93 1 13.7442 3.34545 8.32257
94 1 1.06378 7.50528 1.70711
95 1 13.5608 9.51663 12.896
96 1 6.16563 2.34739 9.6158
97 1 6.00658 4.12469 4.96415
98 1 13.0409 2.11594 12.6389
99 1 9.44842 7.22402 5.61094
100 1 3.08802 8.31472 10.412
101 1 4.27645 12.564 12.0172
102 1 0.247817 12.7339 12.6695
103 1 6.92237 8.32243 4.80264
104 1 10.2096 9.4039 11.0142
105 1 8.10819 14.6608 9.11245
106 1 0.724807 14.5893 14.8093
107 1 7.38606 3.87893 0.612739
108 1 13.59 6.17467 11.3541
109 1 6.57455 9.82429 14.0409
110 1 6.72525 7.05567 13.1783
111 1 3.66994 10.3273 5.96103
112 1 1.66543 1.60839 5.77048
113 1 9.05834 13.0173 1.11863
114 1 4.11235 0.213829 6.02437
115 1 10.3679 8.11545 2.36753
116 1 3.8208 14.5044 10.4834
117 1 6.27696 11.8524 2.07137
118 1 3.1417 11.1769 14.1451
119 1 12.971 3.21476 1.56998
120 1 12.4061 13.5738 10.1924
121 1 14.0948 6.56232 13.8874
122 1 11.4172 0.689063 2.37021
123 1 1.65778 1.52802 1.12949
124 1 7.74882 0.714644 6.86752
125 1 13.0368 10.8806 0.0461404
126 1 14.1536 3.59273 10.8941
127 1 12.9937 3.74289 4.44237
128 1 4.93288 10.2326 0.481908
129 2 4.52916 4.87676 12.9369
130 2 4.69703 5.06241 14.547
131 2 14.6886 4.58995 14.3163
132 2 0.0945933 3.63697 13.6264
133 2 7.74221 10.0755 4.24889
134 2 8.99342 10.7228 3.34745
135 2 0.788771 4.72927 4.53377
136 2 1.81069 3.95163 3.77685
137 2 14.4008 11.9252 10.4575
138 2 13.9069 10.7269 11.3647
139 2 10.6725 0.201823 0.765773
140 2 9.47367 0.652849 -0.0632908
141 2 13.5922 9.97565 6.76473
142 2 13.2152 10.5455 5.32572
143 2 3.67781 14.0964 8.7488
144 2 3.53939 14.3835 7.27865
145 2 3.09567 5.45978 2.78243
146 2 3.60518 6.19337 4.09913
147 2 5.08995 9.05489 1.76222
148 2 4.54185 7.79795 2.5309
149 2 13.4381 6.67871 2.59019
150 2 14.7355 6.25337 1.79471
151 2 0.77524 9.18308 14.2443
152 2 0.388115 10.6288 14.9234
153 2 14.1894 4.91997 4.56536
154 2 14.9228 6.4107 4.60147
155 2 10.8762 5.93786 7.61697
156 2 9.58879 6.53361 7.20672
157 2 12.1014 7.06547 4.8105
158 2 11.5829 7.27566 3.48345
159 2 9.70669 3.06202 7.62541
160 2 9.96186 3.35305 6.0781
161 2 3.89127 3.51534 11.556
162 2 5.31618 3.63484 11.0911
163 2 8.36256 9.80951 10.99
164 2 7.91946 11.2623 11.3115
165 2 7.80256 2.56448 14.9346
166 2 7.58248 1.21916 14.1315
167 2 6.10462 13.5421 -0.242407
168 2 4.85977 13.825 0.528199
169 2 14.4101 13.8153 10.1623
170 2 -0.0704958 13.4422 11.1966
171 2 11.7088 2.1063 6.54679
172 2 12.6961 1.18401 5.89058
173 2 10.9921 7.5299 13.3514
174 2 11.2636 8.01166 14.7268
175 2 1.57728 7.89927 5.7134
176 2 1.87051 8.36741 7.16573
177 2 11.4302 9.71213 6.20698
178 2 10.3486 10.1292 5.1128
179 2 14.4149 8.445 5.04536
180 2 0.00164071 8.8165 4.03796
181 2 1.02838 11.8189 4.67407
182 2 2.36173 10.8675 4.79517
183 2 6.32838 0.734699 10.265
184 2 5.21972 -0.301306 10.6492
185 2 12.568 9.37229 0.310345
186 2 12.8634 7.95827 0.824663
187 2 2.56428 7.41349 12.0109
188 2 3.14156 6.4193 13.0935
189 2 3.16723 6.41343 5.9805
190 2 3.10221 4.98312 5.63197
191 2 7.73547 13.1577 8.33842
192 2 8.06104 12.6116 6.87934
193 2 1.75422 3.38105 1.7562
194 2 3.25148 3.1727 2.47226
195 2 3.15037 12.6412 14.9757
196 2 3.16776 12.9566 0.983888
197 2 0.0720948 5.37286 6.52711
198 2 -0.245356 6.34024 7.61737
199 2 11.6512 14.8569 8.35832
200 2 11.802 13.9131 7.23812
201 2 2.07792 14.3411 2.56175
202 2 1.50629 0.044002 2.08403
203 2 6.3968 14.9261 13.4491
204 2 6.20534 0.425411 12.4267
205 2 0.660795 9.1318 1.85703
206 2 0.694078 10.391 2.87312
207 2 12.3708 14.0972 13.0916
208 2 12.1841 12.5232 13.366
209 2 2.09163 12.5603 7.87369
210 2 0.901668 12.2269 8.80367
211 2 13.6981 0.109016 0.335681
212 2 13.4443 14.3386 15.279
213 2 14.5376 15.2076 4.93591
214 2 0.228484 14.9795 4.13145
215 2 9.24837 13.4527 11.622
216 2 9.52013 12.2417 12.5392
217 2 12.875 7.30125 7.44426
218 2 13.1287 6.09272 6.70831
219 2 8.70364 11.2231 8.31889
220 2 9.67729 10.2938 7.51515
221 2 10.4955 10.2933 12.7118
222 2 10.0325 10.7711 14.1408
223 2 9.87115 13.0955 5.5737
224 2 8.95145 12.0108 4.93614
225 2 4.74251 0.928236 14.2575
226 2 3.48888 1.81195 13.8977
227 2 7.56401 13.1017 13.1985
228 2 6.02622 12.6782 13.2435
229 2 3.65548 5.64787 8.88705
230 2 4.53028 5.65688 10.1121
231 2 10.7483 -0.0654962 13.7661
232 2 11.7812 0.808853 13.0779
233 2 8.36482 -0.291862 3.46612
234 2 8.34757 14.0066 4.25098
235 2 5.1094 1.81781 2.95108
236 2 4.6411 2.96006 4.03817
237 2 12.5339 11.0417 9.22128
238 2 11.1841 11.2095 8.49369
239 2 8.60742 10.312 0.576946
240 2 8.69537 11.7883 0.0583599
241 2 1.42282 1.68337 7.50469
242 2 1.60998 2.65673 8.73322
243 2 8.87953 5.11923 12.1645
244 2 8.03029 6.40716 12.1505
245 2 1.95332 8.95172 9.16853
246 2 1.28006 10.1574 8.3047
247 2 11.2632 11.2403 2.79611
248 2 10.7957 9.70539 2.72449
249 2 11.5653 5.40273 -0.288322
250 2 11.1896 4.32648 14.2564
251 2 10.4204 6.65681 9.62663
252 2 10.2607 6.46258 11.0571
253 2 5.87632 10.1769 10.5904
254 2 4.94364 10.8143 9.46912
255 2 7.91802 7.6928 0.604333
256 2 7.17835 8.74025 1.63464
257 2 14.2008 7.92642 9.35992
258 2 -0.267797 8.44072 8.55252
259 2 6.16366 14.3915 3.8125
260 2 4.75946 14.0077 3.26281
261 2 6.35085 1.60272 6.90857
262 2 4.84301 1.75402 6.76165
263 2 1.34137 0.662419 9.62968
264 2 0.817817 14.7755 10.0578
265 2 10.8342 13.0339 1.10914
266 2 12.2496 13.5788 1.43103
267 2 7.99168 4.93257 10.0429
268 2 8.59208 4.87508 8.55834
269 2 -0.0863874 13.5026 5.64494
270 2 0.00602987 12.1735 6.56287
271 2 6.0476 11.6847 7.84187
272 2 4.65027 12.2574 7.8746
273 2 -0.10786 7.21382 14.4417
274 2 1.40859 7.20909 13.8607
275 2 1.10879 5.19843 12.1297
276 2 0.142322 4.18446 11.4107
277 2 0.192301 0.569522 11.8253
278 2 0.262058 0.216297 13.3227
279 2 13.325 12.966 5.76917
280 2 12.474 12.1815 6.79075
281 2 6.96454 1.33987 0.72514
282 2 6.22808 -0.0168944 1.14781
283 2 5.28424 6.95392 7.95734
284 2 5.69738 8.44349 7.79401
285 2 4.59695 2.96295 -0.156096
286 2 4.05776 3.8329 1.0606
287 2 14.2623 2.20361 0.861912
288 2 14.7961 2.02476 15.1013
289 2 7.90736 0.984376 2.41964
290 2 8.42535 2.08554 3.23522
291 2 9.33834 3.30929 9.83257
292 2 10.1754 1.88055 10.1119
293 2 1.75381 4.52695 9.90946
294 2 1.11552 4.78978 8.54253
295 2 12.2645 0.0873025 4.07993
296 2 12.0334 14.6435 5.15054
297 2 9.97133 5.30379 5.02216
298 2 9.51596 4.30903 3.95105
299 2 9.11176 6.41377 14.7882
300 2 7.57568 6.54 14.599
301 2 2.07189 2.92609 11.9449
302 2 2.69894 1.52435 11.845
303 2 10.8501 14.3815 10.4642
304 2 10.5118 -0.206863 11.478
305 2 0.274248 12.7719 0.61942
306 2 0.108425 11.2293 1.22179
307 2 9.70727 2.84376 13.3266
308 2 10.3129 3.49932 12.1129
309 2 7.16744 3.93944 3.6373
310 2 7.68964 3.77425 2.12389
311 2 2.7812 12.2345 3.34142
312 2 4.17512 12.108 2.65722
313 2 13.4252 2.63657 7.76521
314 2 14.4885 3.85196 7.85505
315 2 1.16553 7.50623 0.684607
316 2 1.80702 6.9489 2.01705
317 2 14.4305 9.58843 13.243
318 2 13.0187 10.0336 13.4694
319 2 5.70123 2.57075 8.68482
320 2 6.80813 3.05178 9.52933
321 2 5.35787 4.80808 5.12533
322 2 5.96938 3.53575 5.71789
323 2 13.0854 2.74416 13.3668
324 2 13.871 1.59988 12.7008
325 2 8.54415 7.16809 5.28465
326 2 9.76316 8.11779 5.62097
327 2 3.5805 7.58031 10.0651
328 2 3.76188 9.05652 10.3377
329 2 4.55808 11.8882 11.3243
330 2 3.56374 12.075 12.5347
331 2 0.334551 11.7965 12.6005
332 2 0.24849 12.8839 13.5924
333 2 6.35726 8.22802 5.65351
334 2 6.38531 8.12785 4.02112
335 2 10.214 9.5859 10.0692
336 2 10.6644 8.57403 11.1276
337 2 8.95214 14.8857 9.64428
338 2 7.3584 14.7538 9.70982
339 2 0.591563 15.0693 0.0182509
340 2 1.70203 14.3696 14.7724
341 2 6.4741 3.89198 0.306924
342 2 7.8908 4.74294 0.474307
343 2 13.7745 5.25403 11.174
344 2 12.6407 6.3597 11.1641
345 2 6.61181 10.3071 13.1711
346 2 7.38294 10.2018 14.4287
347 2 5.92965 6.53312 13.3142
348 2 6.65131 8.00804 13.4902
349 2 4.1508 10.9057 6.58172
350 2 3.72612 9.43762 6.27968
351 2 0.960879 1.05271 5.33877
352 2 1.48012 2.49213 5.40543
353 2 8.71011 13.4532 1.93204
354 2 8.99593 13.78 0.520382
355 2 3.28533 0.709593 5.89467
356 2 4.52263 -0.105961 5.1872
357 2 10.8957 8.12501 1.5533
358 2 9.392 8.09909 2.00114
359 2 2.85608 14.8006 10.6062
360 2 3.90293 13.7417 11.0449
361 2 6.48734 12.6937 1.54518
362 2 7.04029 11.6822 2.67807
363 2 2.24681 10.7375 14.3261
364 2 3.668 10.6767 14.8241
365 2 12.3482 3.69431 0.972113
366 2 13.2921 3.83378 2.19605
367 2 12.5073 12.8061 9.60602
368 2 12.5354 13.311 11.1419
369 2 13.9506 6.55755 12.8999
370 2 13.4462 7.1125 14.3857
371 2 11.8334 1.45816 2.05064
372 2 10.4376 0.894116 2.52875
373 2 0.844146 1.54638 0.605455
374 2 2.39804 1.38307 0.478242
375 2 7.77884 0.12269 7.66547
376 2 8.60235 1.23456 6.91956
377 2 12.4122 11.5105 0.551261
378 2 13.9301 11.2794 0.187093
379 2 13.8259 3.47873 9.96028
380 2 13.5184 3.1733 11.5056
381 2 12.9666 3.11167 5.2382
382 2 12.0906 4.05916 4.29522
383 2 5.48443 10.7696 1.07083
384 2 5.47524 10.05 -0.286949
ITEM: TIMESTEP
200
ITEM: NUMBER OF ATOMS
384
ITEM: BOX BOUNDS pp pp pp
-2.1868351273538700e-01 1.5218683512735430e+01
-2.1868351273538700e-01 1.5218683512735430e+01
-2.1868351273538700e-01 1.5218683512735430e+01
ITEM: ATOMS id type x y z
1 1 4.52431 5.61927 13.2167
2 1 14.5009 3.93868 13.9419
3 1 7.58736 10.6369 3.74981
4 1 1.73073 3.78571 4.56412
5 1 13.6622 10.1088 10.273
6 1 9.9724 0.227337 0.0479551
7 1 13.3291 9.635 6.0565
8 1 3.33677 13.6044 7.67692
9 1 3.22974 6.47455 2.92281
10 1 5.51955 7.84645 2.55455
11 1 13.8122 6.54066 1.8439
12 1 0.571777 10.0707 13.8349
13 1 14.9621 5.3586 4.87866
14 1 9.87236 5.95166 7.82428
15 1 12.2317 6.98094 4.01012
16 1 9.93867 2.7755 6.73803
17 1 4.7412 3.92698 11.2299
18 1 7.35322 10.4284 11.3736
19 1 8.38617 1.97857 14.4105
20 1 5.86345 13.9507 0.609568
21 1 -0.182784 13.3011 10.0088
22 1 12.5388 1.82193 6.29116
23 1 10.6119 7.07889 14.1309
24 1 1.93137 7.85886 6.30769
25 1 10.4172 9.18564 5.75444
26 1 15.173 8.18984 4.72479
27 1 1.75098 11.449 4.38973
28 1 5.93204 0.280814 10.5692
29 1 12.2392 8.04079 0.341783
30 1 2.28116 6.56124 12.2998
31 1 3.48175 5.75602 5.32809
32 1 7.69697 11.8746 7.85425
33 1 3.11937 3.63204 2.17105
34 1 3.04192 13.3508 0.183591
35 1 -0.0297045 5.30017 7.60688
36 1 10.6474 14.5979 7.36074
37 1 1.26685 14.49 2.29122
38 1 6.07082 0.445556 13.2938
39 1 0.383885 9.91602 2.6904
40 1 12.2486 13.078 12.5658
41 1 0.975912 12.2263 8.06891
42 1 13.4913 14.2589 0.203732
43 1 -0.0496719 15.0448 4.53897
44 1 8.54782 12.7737 11.789
45 1 12.489 6.30628 6.83444
46 1 9.75088 10.2562 8.24568
47 1 10.4032 11.0479 12.8113
48 1 8.86578 12.3409 5.38477
49 1 3.92864 1.63048 14.2443
50 1 6.47953 13.1762 13.4658
51 1 4.11948 5.97838 9.30022
52 1 11.2674 0.00170945 13.079
53 1 7.53858 14.1658 3.50098
54 1 4.6718 2.13836 3.5672
55 1 12.2445 11.2412 8.4233
56 1 8.81574 10.5427 -0.217119
57 1 1.64936 1.80511 8.37457
58 1 8.50098 5.55721 11.5727
59 1 1.22641 9.1784 8.55472
60 1 10.4646 10.5194 3.35437
61 1 11.53 4.31385 14.8489
62 1 10.5453 6.92461 10.4739
63 1 4.85422 10.2128 10.0871
64 1 8.00382 8.00984 1.30391
65 1 14.2578 7.49162 8.64971
66 1 4.9317 14.796 3.71429
67 1 5.76881 1.93064 6.81979
68 1 1.32526 0.365696 10.4061
69 1 11.4963 12.3963 1.75142
70 1 8.26406 4.22607 9.34497
71 1 15.1544 12.5091 5.64329
72 1 4.91446 11.3357 7.61523
73 1 0.910823 7.48334 14.2955
74 1 1.10571 4.24705 11.7681
75 1 -0.0947044 0.609173 12.7305
76 1 12.4299 12.5273 6.02994
77 1 6.25824 1.08498 1.5042
78 1 5.55269 8.14212 6.95901
79 1 4.55885 3.97532 -0.193784
80 1 14.4823 1.83283 0.3021
81 1 8.52323 1.35682 2.66053
82 1 10.1208 2.5456 10.2939
83 1 1.89442 4.41419 8.87548
84 1 12.6688 15.1551 4.29202
85 1 10.1886 4.77975 4.89452
86 1 8.317 6.36567 14.9563
87 1 2.79685 2.17612 12.0459
88 1 9.91005 14.7522 10.8013
89 1 15.1407 11.2985 0.744156
90 1 9.69014 3.5433 12.7335
91 1 7.93783 3.78925 3.52447
92 1 3.32476 12.6376 2.69694
93 1 13.4637 3.61408 8.17505
94 1 0.691647 7.5047 1.72027
95 1 13.417 9.98569 12.7319
96 1 6.18744 2.73756 9.28512
97 1 5.76522 3.94389 5.16644
98 1 13.0501 1.84484 12.6643
99 1 8.93963 6.99708 5.43464
100 1 3.16309 8.17005 10.2532
101 1 4.45473 12.2325 12.0434
102 1 0.629665 12.6581 12.4065
103 1 6.79027 8.48231 4.68778
104 1 9.80194 9.45506 10.7929
105 1 7.91633 14.4791 8.98475
106 1 0.781151 14.3431 14.4929
107 1 7.33055 3.86584 0.292041
108 1 13.2977 6.66539 10.856
109 1 6.6284 9.562 13.6586
110 1 6.72553 6.89901 13.147
111 1 3.58534 9.79809 5.57925
112 1 1.5114 1.21693 5.70271
113 1 9.11748 13.26 0.993973
114 1 3.96237 0.166375 6.0727
115 1 10.433 8.07221 2.37085
116 1 3.73073 14.298 10.3242
117 1 5.64092 11.6335 2.18672
118 1 3.17958 11.0738 14.2171
119 1 12.3167 3.00318 1.56982
120 1 12.4976 13.6902 10.0644
121 1 13.9026 6.50806 13.5761
122 1 11.1891 0.879319 2.44696
123 1 1.83202 1.38644 1.05508
124 1 8.07541 0.656263 6.71185
125 1 12.7316 10.6684 -0.154272
126 1 14.0246 3.77896 10.7786
127 1 12.6048 4.10541 4.03325
128 1 4.96609 9.66005 0.432851
129 2 4.44582 4.94123 12.5542
130 2 4.4674 5.23711 13.9586
131 2 14.3988 4.78107 14.0276
132 2 15.2178 3.89501 13.3833
133 2 7.11939 9.81087 4.30507
134 2 8.47497 10.3933 3.26683
135 2 1.05388 4.39474 4.5405
136 2 2.20637 3.84707 3.68434
137 2 14.3894 10.7556 10.2545
138 2 13.3934 10.215 11.3914
139 2 10.3807 0.627465 0.823553
140 2 9.1827 0.822875 15.1387
141 2 13.4128 9.60678 7.05379
142 2 13.1234 10.6831 5.93195
143 2 3.50782 14.0321 8.48767
144 2 3.64173 14.1421 6.91875
145 2 2.97861 5.79288 2.30463
146 2 3.42559 6.16131 3.83546
147 2 5.16422 8.63314 1.98318
148 2 4.81119 7.1661 2.41219
149 2 13.2719 6.55756 2.69261
150 2 14.7296 6.88145 2.02569
151 2 0.8446 9.17082 13.7093
152 2 0.389536 10.1552 14.8369
153 2 13.9697 5.02285 4.60701
154 2 14.951 6.3767 4.79223
155 2 10.6319 6.18455 7.33236
156 2 9.3974 6.56646 7.42817
157 2 12.5002 7.01256 4.91021
158 2 11.4037 7.64122 3.98902
159 2 9.73722 2.98963 7.71164
160 2 10.0348 3.68005 6.37315
161 2 4.18904 3.04848 11.2099
162 2 5.39073 3.69915 10.4365
163 2 8.07902 9.89009 11.2179
164 2 7.63967 11.2892 11.2912
165 2 8.18357 2.55076 15.0196
166 2 7.43752 1.60634 14.1051
167 2 6.35326 13.7 15.2174
168 2 4.77388 13.9932 0.367933
169 2 14.2502 13.4327 10.1567
170 2 0.146492 13.1711 11.007
171 2 11.4646 2.05316 6.33389
172 2 12.638 0.955067 5.73072
173 2 10.9545 7.38819 13.3041
174 2 11.1312 7.66581 14.8766
175 2 1.22197 7.8993 5.54014
176 2 1.5682 8.22573 7.05041
177 2 11.2999 9.04755 5.85342
178 2 10.2556 9.81621 4.8658
179 2 14.4195 8.85883 5.28109
180 2 0.0585515 8.81787 3.90685
181 2 1.14271 11.8612 5.04381
182 2 2.49 10.7956 4.97162
183 2 6.15766 1.00165 10.0171
184 2 5.06456 15.1914 10.4174
185 2 12.6559 8.98232 0.260898
186 2 13.1926 7.42531 0.868124
187 2 2.44152 7.21106 11.5704
188 2 2.96788 6.13927 12.7278
189 2 3.13261 6.3487 5.98682
190 2 3.07415 4.80636 5.32015
191 2 7.57803 12.9202 8.27011
192 2 8.14515 11.874 6.94426
193 2 2.47649 3.03097 1.78716
194 2 3.6951 2.94043 2.82768
195 2 2.8823 12.3367 15.0401
196 2 2.94769 13.1257 1.18038
197 2 -0.0510107 5.54992 6.47554
198 2 15.0586 6.07873 7.86477
199 2 11.3388 -0.0819724 7.41036
200 2 11.1508 13.7524 7.08609
201 2 1.99128 14.0825 2.68737
202 2 1.80856 15.1344 1.64427
203 2 6.3175 14.8291 13.5365
204 2 5.96273 0.407886 12.2285
205 2 0.840795 9.04346 2.30646
206 2 0.750877 10.4049 3.59314
207 2 11.61 13.9389 12.6649
208 2 11.6749 12.3061 12.5932
209 2 1.96867 12.6864 7.89622
210 2 0.356019 12.8248 8.74197
211 2 13.4278 15.2158 0.504666
212 2 13.2788 14.419 14.6926
213 2 14.5385 -0.0711874 4.33587
214 2 0.323612 14.7455 3.58271
215 2 8.86887 13.6535 11.355
216 2 9.38757 12.3596 12.3654
217 2 13.1502 6.82854 7.25887
218 2 12.7677 5.27792 6.772
219 2 8.72073 10.6325 8.12938
220 2 9.7744 9.59478 7.51867
221 2 10.2087 10.3432 12.177
222 2 10.1249 10.7203 13.6743
223 2 9.76704 12.0979 5.19526
224 2 8.30101 11.5475 5.06115
225 2 4.80079 1.11675 13.8403
226 2 3.48614 1.68183 13.3306
227 2 7.38806 12.9286 13.0172
228 2 5.81168 12.8776 12.8338
229 2 3.35432 5.28183 9.05007
230 2 4.77815 5.37149 9.81683
231 2 10.889 0.303772 13.9586
232 2 11.8601 0.704627 12.7824
233 2 7.93667 15.0587 3.31415
234 2 7.96141 13.8386 4.28438
235 2 5.09278 1.45469 2.80479
236 2 5.46562 2.73173 3.8939
237 2 12.4897 10.8902 9.3326
238 2 11.3328 10.9335 8.22138
239 2 8.33512 9.8338 0.486564
240 2 8.68286 11.5708 0.0889522
241 2 1.45231 1.50119 7.28666
242 2 1.80182 2.81669 8.37721
243 2 8.83533 4.78767 12.09
244 2 7.78542 6.2299 12.1054
245 2 1.7316 8.8161 9.24697
246 2 1.31655 10.2716 8.48977
247 2 10.8704 11.3803 2.9539
248 2 10.5576 9.69478 2.82273
249 2 11.1106 5.41125 14.804
250 2 11.0865 4.02759 14.0233
251 2 10.6872 6.45285 9.63198
252 2 9.69169 6.42913 10.8025
253 2 5.79244 10.287 10.2888
254 2 4.7627 10.917 9.20892
255 2 8.13193 7.40134 0.584095
256 2 7.35305 7.91087 1.92224
257 2 13.9837 7.32919 9.65317
258 2 15.207 8.01389 8.8105
259 2 5.80082 14.4339 3.81839
260 2 4.59448 13.9526 3.61041
261 2 6.59657 1.44792 6.5785
262 2 4.92796 1.30074 6.67434
263 2 1.45551 0.841245 9.66134
264 2 0.836605 14.9875 10.1902
265 2 10.7693 12.7258 1.18021
266 2 12.1591 12.9757 1.72916
267 2 8.23833 4.95917 10.2739
268 2 8.78497 4.80166 8.61737
269 2 -0.138198 13.4304 5.35377
270 2 0.235597 12.4089 6.52275
271 2 5.90613 11.4145 7.37988
272 2 4.54927 12.173 7.44708
273 2 -0.0467332 7.31458 14.3059
274 2 1.39188 6.95136 13.582
275 2 1.49905 5.07816 11.9074
276 2 0.349781 4.41542 11.3001
277 2 0.422154 0.615441 11.8747
278 2 0.428214 0.433026 13.4666
279 2 13.4057 12.6761 5.75488
280 2 12.3107 12.0733 6.82152
281 2 6.25207 1.63856 0.561448
282 2 6.09192 0.168274 1.3001
283 2 5.15128 7.25203 7.41084
284 2 5.02374 8.78828 7.1689
285 2 4.37821 3.03779 14.9532
286 2 4.02498 3.96236 0.695164
287 2 13.7735 2.24996 0.876911
288 2 14.83 2.45653 15.0264
289 2 7.61608 1.33199 2.11743
290 2 8.55219 2.25696 3.12897
291 2 9.69642 2.86882 9.64417
292 2 10.3301 1.57868 9.91228
293 2 1.54046 4.50859 9.84851
294 2 1.00441 4.79848 8.32912
295 2 12.247 0.161704 3.61474
296 2 12.4538 14.4599 4.73396
297 2 10.0542 5.78779 5.00588
298 2 9.40424 4.44042 4.36327
299 2 9.22388 6.81531 14.537
300 2 7.51924 6.43457 14.3391
301 2 2.12531 2.94679 12.0305
302 2 2.40769 1.43554 11.4487
303 2 10.8605 14.5623 10.3933
304 2 10.3539 15.0169 11.5405
305 2 -0.00654154 12.2605 0.862286
306 2 0.0233562 10.9343 1.61256
307 2 9.23794 2.76918 13.3122
308 2 10.2214 3.22847 11.8615
309 2 7.13623 3.97394 4.13718
310 2 7.98119 4.24766 2.68607
311 2 2.62776 12.3216 3.35001
312 2 4.03338 11.9997 2.42828
313 2 13.3482 2.8038 7.58516
314 2 14.3161 4.09751 8.02113
315 2 1.05335 7.32944 0.769651
316 2 1.34298 7.18784 2.24776
317 2 14.4745 9.9853 13.0015
318 2 12.9465 10.6416 13.4759
319 2 5.92149 2.47086 8.34195
320 2 7.04488 3.38227 9.27349
321 2 4.9194 4.58238 5.25865
322 2 5.69494 3.16554 5.93139
323 2 12.9884 2.51767 13.2576
324 2 13.9078 1.37461 12.7916
325 2 8.2324 7.2051 4.78387
326 2 9.41301 7.91561 5.47946
327 2 3.70095 7.30861 9.94917
328 2 3.91228 8.91075 10.1308
329 2 4.67946 11.6559 11.314
330 2 4.03869 11.7446 12.8834
331 2 0.38572 11.825 12.9955
332 2 0.35615 13.4078 12.9688
333 2 6.36396 8.63196 5.58108
334 2 6.31661 8.12844 3.92536
335 2 9.60757 9.76362 9.8989
336 2 10.0986 8.52106 10.5449
337 2 8.62616 14.9024 9.59748
338 2 7.10369 14.5878 9.66581
339 2 0.373491 14.8463 -0.0601009
340 2 1.7855 14.0216 14.8102
341 2 6.27785 4.05227 0.338408
342 2 7.61648 4.74215 0.240601
343 2 13.6594 5.68317 10.7383
344 2 12.3002 6.73689 10.6769
345 2 6.93387 10.0962 12.797
346 2 7.36865 9.74467 14.2639
347 2 5.79524 6.48882 13.0639
348 2 6.68628 7.96409 13.1753
349 2 3.82715 10.3721 6.38184
350 2 2.79711 9.22276 5.88493
351 2 0.826166 0.509092 5.20944
352 2 1.26375 2.15468 5.27438
353 2 8.8452 13.4084 1.81954
354 2 9.41486 14.0727 0.517787
355 2 3.01052 0.491041 5.95465
356 2 4.15246 -0.186728 5.05362
357 2 11.1954 7.90432 1.57068
358 2 9.51423 7.68684 1.85495
359 2 2.96088 14.7398 10.2851
360 2 4.02382 13.5583 11.0277
361 2 5.82124 12.4354 1.80677
362 2 6.49688 11.2051 2.80126
363 2 2.31087 10.6221 14.0504
364 2 3.71739 10.4241 14.9295
365 2 11.911 3.58883 0.817145
366 2 12.6301 3.45778 2.32963
367 2 12.3836 12.9436 9.37178
368 2 12.2511 13.3881 11.0516
369 2 13.6275 6.8099 12.7051
370 2 13.1542 6.68175 14.0496
371 2 11.3504 1.79115 2.02857
372 2 10.338 1.14977 2.83333
373 2 0.839187 1.62282 0.852786
374 2 2.1804 1.33473 0.166687
375 2 8.01856 0.0380666 7.37056
376 2 8.78729 1.35708 6.81053
377 2 12.0749 11.1053 0.593397
378 2 13.5727 10.7827 0.243708
379 2 13.7809 3.57698 9.64649
380 2 13.4845 3.03879 11.2785
381 2 12.4352 3.33271 4.59293
382 2 11.6909 4.50326 4.09084
383 2 5.41748 10.5737 0.72308
384 2 5.39572 9.44115 14.9642
ITEM: TIMESTEP
400
ITEM: NUMBER OF ATOMS
384
ITEM: BOX BOUNDS pp pp pp
-1.3021218416963443e-01 1.5130212184169675e+01
-1.3021218416963443e-01 1.5130212184169675e+01
-1.3021218416963443e-01 1.5130212184169675e+01
ITEM: ATOMS id type x y z
1 1 4.542 5.4339 12.5944
2 1 14.6266 3.86858 14.0803
3 1 7.33248 10.791 3.45779
4 1 1.69152 3.52037 4.42606
5 1 13.5479 9.58679 9.8963
6 1 9.44156 0.0501346 15.0179
7 1 13.3312 9.79678 6.44772
8 1 3.45972 13.0154 7.90894
9 1 3.39831 6.01162 2.4456
10 1 5.53924 7.50331 2.11679
11 1 13.8353 6.63818 2.03106
12 1 0.621098 10.11 13.9831
13 1 15.1227 5.26946 4.84256
14 1 9.58202 6.44788 8.07078
15 1 12.2349 6.85963 4.48936
16 1 10.241 2.64929 6.76476
17 1 4.56673 3.76884 10.6509
18 1 6.81814 10.4727 11.1368
19 1 7.98411 2.01869 14.4226
20 1 5.75515 13.5385 0.514281
21 1 15.0798 13.3435 10.0818
22 1 12.3017 1.90152 5.66271
23 1 10.7914 6.43524 13.4843
24 1 2.05121 8.01649 6.43117
25 1 10.7407 8.98813 5.69342
26 1 15.0444 7.93815 4.7612
27 1 1.64998 11.2693 4.53663
28 1 5.97848 0.545569 10.4361
29 1 12.2668 7.82495 0.106354
30 1 2.09211 6.44465 12.1288
31 1 3.28821 5.67493 5.26697
32 1 7.46036 11.8842 7.72508
33 1 3.21872 3.45397 1.80421
34 1 3.27498 12.9615 -0.00588809
35 1 -0.0191214 4.93816 7.47956
36 1 10.5394 14.6759 7.2921
37 1 1.01575 14.2304 1.78626
38 1 5.89325 0.906903 13.0278
39 1 0.32376 9.70724 2.86743
40 1 12.2606 13.0252 12.3936
41 1 1.10835 11.9118 8.14259
42 1 13.4857 13.86 15.0965
43 1 15.0138 14.8339 4.15622
44 1 8.35248 12.7493 11.9177
45 1 11.997 5.96317 7.11536
46 1 9.69856 10.327 7.97959
47 1 10.1069 11.0083 12.8284
48 1 8.58599 12.4149 5.34726
49 1 3.63921 1.68514 13.929
50 1 6.12479 13.4329 13.2289
51 1 4.12855 6.12439 8.68681
52 1 11.2187 0.117424 12.8806
53 1 7.40808 13.9817 3.50335
54 1 4.64369 2.15286 3.76965
55 1 12.1343 11.2445 8.51495
56 1 8.94118 10.2298 0.0277667
57 1 2.05556 1.48929 8.24871
58 1 8.45681 5.29243 11.6764
59 1 0.683083 9.50075 8.78114
60 1 10.1198 10.5908 3.67085
61 1 11.6077 3.88639 14.3842
62 1 10.0795 7.04965 10.4836
63 1 4.57727 10.0666 9.73754
64 1 8.1724 8.11042 1.44256
65 1 14.0047 7.26952 8.09556
66 1 4.9042 14.6894 3.71575
67 1 5.78177 1.79853 6.50819
68 1 1.4275 0.119394 10.3075
69 1 11.2192 12.5389 1.87705
70 1 8.82758 3.94034 9.23554
71 1 15.0714 12.6125 5.69241
72 1 5.04898 11.0966 7.28434
73 1 0.824766 7.56861 14.1929
74 1 0.57411 4.22779 11.5469
75 1 15.1258 0.715007 12.6101
76 1 12.3874 12.7353 5.97144
77 1 6.25384 1.09772 1.07192
78 1 5.57357 7.99649 7.44939
79 1 4.73061 4.02172 15.0261
80 1 14.4975 1.64824 0.615804
81 1 8.18241 1.25064 3.01789
82 1 10.3097 2.04865 10.5
83 1 2.02098 4.14991 8.84821
84 1 12.3561 14.9403 4.27722
85 1 9.7116 4.58357 4.86559
86 1 8.3038 6.13386 14.8198
87 1 2.61248 2.21251 11.5923
88 1 10.1198 14.4824 10.6662
89 1 14.801 11.3739 0.989614
90 1 9.75742 3.20749 12.7711
91 1 7.56494 3.7375 3.46824
92 1 3.18893 12.7584 2.74569
93 1 13.1481 3.73928 7.96491
94 1 1.23893 7.64321 1.63398
95 1 13.262 9.83434 12.6622
96 1 6.42206 2.77479 8.89411
97 1 6.10167 4.4604 5.60771
98 1 12.773 2.13232 12.5185
99 1 8.74123 7.16604 5.75788
100 1 2.85224 8.18127 9.97699
101 1 4.26656 12.101 11.7271
102 1 1.01048 12.2397 12.0939
103 1 6.47847 8.39097 4.63905
104 1 9.22994 9.52781 10.6381
105 1 7.64427 14.3893 8.66581
106 1 1.02654 14.0406 14.1155
107 1 7.03857 4.00407 1.02102
108 1 12.5829 6.53533 11.0102
109 1 6.92557 9.47712 13.6404
110 1 6.75203 6.95288 12.7265
111 1 3.82985 9.67901 5.06461
112 1 1.3949 1.09287 5.66908
113 1 8.82043 12.9912 1.2699
114 1 3.65715 15.0807 6.31909
115 1 10.7616 8.27863 2.49116
116 1 3.81174 14.1687 10.1403
117 1 5.19133 11.3465 1.75195
118 1 3.1757 10.7935 13.9384
119 1 12.148 2.98514 1.75313
120 1 12.3537 13.4618 9.83309
121 1 13.7891 6.68846 13.3199
122 1 10.7408 0.677119 2.46805
123 1 1.77886 1.5129 0.875537
124 1 8.21911 0.712917 5.95728
125 1 12.381 10.4468 0.131709
126 1 13.2975 4.05199 10.6503
127 1 12.9344 3.9554 4.40413
128 1 4.78131 9.48049 0.168072
129 2 4.81598 4.82525 11.828
130 2 4.46142 5.20768 13.6584
131 2 13.9853 4.68491 14.0976
132 2 15.1209 4.28398 13.2183
133 2 7.20777 9.85131 3.78943
134 2 8.16206 10.7518 2.90731
135 2 1.12477 4.17667 4.43452
136 2 2.09029 3.09668 3.57711
137 2 14.4964 9.46003 9.69772
138 2 13.4077 9.49179 10.7793
139 2 9.98785 0.457775 0.513734
140 2 8.89603 0.681333 14.8634
141 2 13.4087 10.1305 7.26879
142 2 13.5923 10.6097 5.92204
143 2 3.69792 13.5777 8.82937
144 2 3.70776 13.6211 6.975
145 2 3.07613 5.1854 2.2378
146 2 3.42338 6.04533 3.56444
147 2 5.24893 8.37128 1.62147
148 2 4.87038 6.92687 2.20205
149 2 13.522 6.91751 2.90025
150 2 14.663 6.75691 1.93513
151 2 0.789165 9.0737 14.0679
152 2 0.197218 10.4427 14.854
153 2 14.4987 4.66253 4.74597
154 2 14.9279 6.17017 4.38677
155 2 10.4353 6.22389 7.62078
156 2 9.24955 6.75006 7.26103
157 2 12.0371 6.50339 5.50725
158 2 11.7076 7.49875 3.93064
159 2 9.94432 2.73974 7.71461
160 2 9.96403 3.25678 6.29685
161 2 4.06935 2.89785 10.8534
162 2 5.07773 3.48688 9.89538
163 2 7.56886 9.85304 10.7893
164 2 7.34263 11.3937 11.3143
165 2 7.7251 2.80937 -0.11583
166 2 7.14303 1.74666 14.0768
167 2 6.374 13.402 14.8821
168 2 4.68062 13.6196 0.338232
169 2 14.3394 13.6334 9.95419
170 2 0.115361 12.7516 11.0003
171 2 11.4349 1.99103 6.15308
172 2 12.4265 1.04831 5.23226
173 2 11.228 6.27455 12.6108
174 2 11.3008 6.89552 14.1882
175 2 1.17767 7.88858 6.00596
176 2 1.65283 8.38871 7.24576
177 2 11.7676 8.98832 5.85421
178 2 10.6829 9.54906 4.8449
179 2 14.1426 8.15806 4.9991
180 2 -0.0600851 8.45227 4.04478
181 2 0.886638 11.7325 5.14134
182 2 2.50193 10.8505 4.85913
183 2 6.11509 1.24289 9.84665
184 2 5.13447 14.9591 10.1981
185 2 12.3037 8.82756 0.106154
186 2 12.8555 7.64003 1.01247
187 2 2.29792 7.20266 11.6154
188 2 3.03395 5.86664 12.1551
189 2 2.70035 6.28332 5.76919
190 2 2.84735 4.76902 4.97395
191 2 7.33828 12.5054 8.51456
192 2 7.83592 12.2408 6.9704
193 2 2.64625 2.81066 1.37164
194 2 4.02483 2.75546 2.13158
195 2 3.48734 12.0594 14.7728
196 2 3.17578 12.6859 0.890615
197 2 0.142356 5.14102 6.591
198 2 15.1063 5.82262 7.8379
199 2 11.0814 14.7127 8.28304
200 2 11.0122 13.9815 6.99253
201 2 1.93382 13.8629 2.21136
202 2 1.31435 15.0464 1.29527
203 2 6.09468 0.0462365 13.2336
204 2 6.09402 0.817097 12.1555
205 2 1.06932 9.11325 2.155
206 2 1.11268 10.2742 3.2694
207 2 11.7761 13.6609 12.712
208 2 11.795 12.2386 12.8716
209 2 2.15919 12.2402 8.08526
210 2 0.651522 12.5473 8.70371
211 2 13.563 14.8139 14.798
212 2 13.2361 13.1878 14.4377
213 2 14.0033 14.8925 4.14764
214 2 0.144005 14.7762 3.18984
215 2 8.77435 13.2664 11.2575
216 2 9.2057 12.1129 12.231
217 2 12.6319 6.49128 7.59893
218 2 12.4118 5.14225 7.26495