ITEM: TIMESTEP
0
ITEM: NUMBER OF ATOMS
384
ITEM: BOX BOUNDS pp pp pp
-3.1180958401302572e-01 1.5311809584013066e+01
-3.1180958401302572e-01 1.5311809584013066e+01
-3.1180958401302572e-01 1.5311809584013066e+01
ITEM: ATOMS id type x y z
1 1 4.57679 5.50123 13.6944
2 1 14.8875 3.66367 14.1079
3 1 8.20115 10.8513 3.91518
4 1 1.55859 4.11103 4.68534
5 1 14.0046 11.0534 10.4291
6 1 10.1562 -0.0244194 -0.0179537
7 1 13.1461 9.78511 5.92123
8 1 3.48566 13.6848 7.87681
9 1 3.32305 6.30373 3.20589
10 1 5.30735 8.37688 2.36991
11 1 13.7801 6.32188 1.70807
12 1 0.692367 10.1945 14.1186
13 1 15.0627 5.43363 4.6639
14 1 9.98456 5.97612 7.92121
15 1 12.4056 7.19481 3.96576
16 1 9.83562 2.64919 6.79506
17 1 4.60459 4.17249 11.4106
18 1 7.55062 10.3381 11.1669
19 1 8.27543 1.89543 14.4455
20 1 5.83253 14.0038 0.549654
21 1 -0.277952 13.5963 10.2649
22 1 12.6457 2.09652 6.28487
23 1 10.7129 7.40871 14.2399
24 1 2.2119 7.88472 6.40809
25 1 10.4542 9.69036 5.97773
26 1 -0.282536 8.22967 4.81222
27 1 1.6652 11.2607 4.20606
28 1 6.17365 -0.094545 10.725
29 1 12.1932 8.4542 0.381712
30 1 2.29814 6.67565 12.652
31 1 3.74006 5.65533 5.77839
32 1 7.64075 12.3667 7.75101
33 1 2.57949 3.81144 2.08856
34 1 3.31976 13.3432 0.0677147
35 1 -0.0967938 5.37115 7.46928
36 1 11.1426 14.5448 7.59235
37 1 1.26174 14.8074 2.57217
38 1 6.41618 0.335516 13.3898
39 1 0.207637 9.92258 2.18818
40 1 12.6731 13.1901 12.8323
41 1 1.29363 11.9761 7.9846
42 1 13.2286 14.8362 0.439531
43 1 -0.123887 15.1905 5.01064
44 1 8.80795 12.7708 12.0788
45 1 12.4172 6.75949 6.79319
46 1 9.49869 10.6014 8.40823
47 1 10.544 10.9934 13.3575
48 1 8.99001 12.8372 5.44675
49 1 4.04829 1.51716 14.6149
50 1 6.69928 13.1999 13.7041
51 1 4.43379 6.10378 9.26553
52 1 11.4216 -0.0969869 13.0672
53 1 8.10878 14.4288 3.40524
54 1 4.3962 2.37166 3.28729
55 1 12.1316 11.4523 8.45349
56 1 8.7458 10.8517 -0.213292
57 1 1.53862 1.7361 8.48855
58 1 8.69585 5.89847 11.616
59 1 1.22107 9.19196 8.49846
60 1 10.635 10.5731 3.14594
61 1 11.4957 4.51089 15.2148
62 1 10.9209 6.7156 10.446
63 1 4.94638 10.4223 10.3546
64 1 7.94749 8.55464 1.09697
65 1 14.5919 7.80968 8.4877
66 1 5.26248 14.7619 3.62401
67 1 5.62202 2.26942 6.97039
68 1 1.29568 -0.0251437 10.348
69 1 11.6689 12.7598 1.5126
70 1 8.10674 4.34492 9.29769
71 1 15.2574 12.5827 5.71394
72 1 5.13758 11.4238 7.95676
73 1 0.807368 7.59384 14.5622
74 1 1.07308 4.35508 11.6836
75 1 -0.103901 0.899318 12.6958
76 1 12.4336 12.7126 5.99741
77 1 6.5124 0.898083 1.44852
78 1 5.22926 7.74021 7.34722
79 1 4.69818 3.85809 0.25821
80 1 14.6318 1.53081 0.260033
81 1 8.7843 1.26425 2.88569
82 1 10.1715 2.86217 10.2074
83 1 1.97586 4.56417 8.94346
84 1 12.6683 15.2799 4.82665
85 1 10.1623 4.44247 4.67024
86 1 8.26116 6.29332 15.2182
87 1 2.75694 2.33071 12.3211
88 1 10.1168 15.0402 10.6766
89 1 0.0214213 11.8389 0.424274
90 1 9.92368 3.73613 12.9889
91 1 7.93039 3.8304 3.09944
92 1 3.45334 12.7245 2.72154
93 1 13.7442 3.34545 8.32257
94 1 1.06378 7.50528 1.70711
95 1 13.5608 9.51663 12.896
96 1 6.16563 2.34739 9.6158
97 1 6.00658 4.12469 4.96415
98 1 13.0409 2.11594 12.6389
99 1 9.44842 7.22402 5.61094
100 1 3.08802 8.31472 10.412
101 1 4.27645 12.564 12.0172
102 1 0.247817 12.7339 12.6695
103 1 6.92237 8.32243 4.80264
104 1 10.2096 9.4039 11.0142
105 1 8.10819 14.6608 9.11245
106 1 0.724807 14.5893 14.8093
107 1 7.38606 3.87893 0.612739
108 1 13.59 6.17467 11.3541
109 1 6.57455 9.82429 14.0409
110 1 6.72525 7.05567 13.1783
111 1 3.66994 10.3273 5.96103
112 1 1.66543 1.60839 5.77048
113 1 9.05834 13.0173 1.11863
114 1 4.11235 0.213829 6.02437
115 1 10.3679 8.11545 2.36753
116 1 3.8208 14.5044 10.4834
117 1 6.27696 11.8524 2.07137
118 1 3.1417 11.1769 14.1451
119 1 12.971 3.21476 1.56998
120 1 12.4061 13.5738 10.1924
121 1 14.0948 6.56232 13.8874
122 1 11.4172 0.689063 2.37021
123 1 1.65778 1.52802 1.12949
124 1 7.74882 0.714644 6.86752
125 1 13.0368 10.8806 0.0461404
126 1 14.1536 3.59273 10.8941
127 1 12.9937 3.74289 4.44237
128 1 4.93288 10.2326 0.481908
129 2 4.52916 4.87676 12.9369
130 2 4.69703 5.06241 14.547
131 2 14.6886 4.58995 14.3163
132 2 0.0945933 3.63697 13.6264
133 2 7.74221 10.0755 4.24889
134 2 8.99342 10.7228 3.34745
135 2 0.788771 4.72927 4.53377
136 2 1.81069 3.95163 3.77685
137 2 14.4008 11.9252 10.4575
138 2 13.9069 10.7269 11.3647
139 2 10.6725 0.201823 0.765773
140 2 9.47367 0.652849 -0.0632908
141 2 13.5922 9.97565 6.76473
142 2 13.2152 10.5455 5.32572
143 2 3.67781 14.0964 8.7488
144 2 3.53939 14.3835 7.27865
145 2 3.09567 5.45978 2.78243
146 2 3.60518 6.19337 4.09913
147 2 5.08995 9.05489 1.76222
148 2 4.54185 7.79795 2.5309
149 2 13.4381 6.67871 2.59019
150 2 14.7355 6.25337 1.79471
151 2 0.77524 9.18308 14.2443
152 2 0.388115 10.6288 14.9234
153 2 14.1894 4.91997 4.56536
154 2 14.9228 6.4107 4.60147
155 2 10.8762 5.93786 7.61697
156 2 9.58879 6.53361 7.20672
157 2 12.1014 7.06547 4.8105
158 2 11.5829 7.27566 3.48345
159 2 9.70669 3.06202 7.62541
160 2 9.96186 3.35305 6.0781
161 2 3.89127 3.51534 11.556
162 2 5.31618 3.63484 11.0911
163 2 8.36256 9.80951 10.99
164 2 7.91946 11.2623 11.3115
165 2 7.80256 2.56448 14.9346
166 2 7.58248 1.21916 14.1315
167 2 6.10462 13.5421 -0.242407
168 2 4.85977 13.825 0.528199
169 2 14.4101 13.8153 10.1623
170 2 -0.0704958 13.4422 11.1966
171 2 11.7088 2.1063 6.54679
172 2 12.6961 1.18401 5.89058
173 2 10.9921 7.5299 13.3514
174 2 11.2636 8.01166 14.7268
175 2 1.57728 7.89927 5.7134
176 2 1.87051 8.36741 7.16573
177 2 11.4302 9.71213 6.20698
178 2 10.3486 10.1292 5.1128
179 2 14.4149 8.445 5.04536
180 2 0.00164071 8.8165 4.03796
181 2 1.02838 11.8189 4.67407
182 2 2.36173 10.8675 4.79517
183 2 6.32838 0.734699 10.265
184 2 5.21972 -0.301306 10.6492
185 2 12.568 9.37229 0.310345
186 2 12.8634 7.95827 0.824663
187 2 2.56428 7.41349 12.0109
188 2 3.14156 6.4193 13.0935
189 2 3.16723 6.41343 5.9805
190 2 3.10221 4.98312 5.63197
191 2 7.73547 13.1577 8.33842
192 2 8.06104 12.6116 6.87934
193 2 1.75422 3.38105 1.7562
194 2 3.25148 3.1727 2.47226
195 2 3.15037 12.6412 14.9757
196 2 3.16776 12.9566 0.983888
197 2 0.0720948 5.37286 6.52711
198 2 -0.245356 6.34024 7.61737
199 2 11.6512 14.8569 8.35832
200 2 11.802 13.9131 7.23812
201 2 2.07792 14.3411 2.56175
202 2 1.50629 0.044002 2.08403
203 2 6.3968 14.9261 13.4491
204 2 6.20534 0.425411 12.4267
205 2 0.660795 9.1318 1.85703
206 2 0.694078 10.391 2.87312
207 2 12.3708 14.0972 13.0916
208 2 12.1841 12.5232 13.366
209 2 2.09163 12.5603 7.87369
210 2 0.901668 12.2269 8.80367
211 2 13.6981 0.109016 0.335681
212 2 13.4443 14.3386 15.279
213 2 14.5376 15.2076 4.93591
214 2 0.228484 14.9795 4.13145
215 2 9.24837 13.4527 11.622
216 2 9.52013 12.2417 12.5392
217 2 12.875 7.30125 7.44426
218 2 13.1287 6.09272 6.70831
219 2 8.70364 11.2231 8.31889
220 2 9.67729 10.2938 7.51515
221 2 10.4955 10.2933 12.7118
222 2 10.0325 10.7711 14.1408
223 2 9.87115 13.0955 5.5737
224 2 8.95145 12.0108 4.93614
225 2 4.74251 0.928236 14.2575
226 2 3.48888 1.81195 13.8977
227 2 7.56401 13.1017 13.1985
228 2 6.02622 12.6782 13.2435
229 2 3.65548 5.64787 8.88705
230 2 4.53028 5.65688 10.1121
231 2 10.7483 -0.0654962 13.7661
232 2 11.7812 0.808853 13.0779
233 2 8.36482 -0.291862 3.46612
234 2 8.34757 14.0066 4.25098
235 2 5.1094 1.81781 2.95108
236 2 4.6411 2.96006 4.03817
237 2 12.5339 11.0417 9.22128
238 2 11.1841 11.2095 8.49369
239 2 8.60742 10.312 0.576946
240 2 8.69537 11.7883 0.0583599
241 2 1.42282 1.68337 7.50469
242 2 1.60998 2.65673 8.73322
243 2 8.87953 5.11923 12.1645
244 2 8.03029 6.40716 12.1505
245 2 1.95332 8.95172 9.16853
246 2 1.28006 10.1574 8.3047
247 2 11.2632 11.2403 2.79611
248 2 10.7957 9.70539 2.72449
249 2 11.5653 5.40273 -0.288322
250 2 11.1896 4.32648 14.2564
251 2 10.4204 6.65681 9.62663
252 2 10.2607 6.46258 11.0571
253 2 5.87632 10.1769 10.5904
254 2 4.94364 10.8143 9.46912
255 2 7.91802 7.6928 0.604333
256 2 7.17835 8.74025 1.63464
257 2 14.2008 7.92642 9.35992
258 2 -0.267797 8.44072 8.55252
259 2 6.16366 14.3915 3.8125
260 2 4.75946 14.0077 3.26281
261 2 6.35085 1.60272 6.90857
262 2 4.84301 1.75402 6.76165
263 2 1.34137 0.662419 9.62968
264 2 0.817817 14.7755 10.0578
265 2 10.8342 13.0339 1.10914
266 2 12.2496 13.5788 1.43103
267 2 7.99168 4.93257 10.0429
268 2 8.59208 4.87508 8.55834
269 2 -0.0863874 13.5026 5.64494
270 2 0.00602987 12.1735 6.56287
271 2 6.0476 11.6847 7.84187
272 2 4.65027 12.2574 7.8746
273 2 -0.10786 7.21382 14.4417
274 2 1.40859 7.20909 13.8607
275 2 1.10879 5.19843 12.1297
276 2 0.142322 4.18446 11.4107
277 2 0.192301 0.569522 11.8253
278 2 0.262058 0.216297 13.3227
279 2 13.325 12.966 5.76917
280 2 12.474 12.1815 6.79075
281 2 6.96454 1.33987 0.72514
282 2 6.22808 -0.0168944 1.14781
283 2 5.28424 6.95392 7.95734
284 2 5.69738 8.44349 7.79401
285 2 4.59695 2.96295 -0.156096
286 2 4.05776 3.8329 1.0606
287 2 14.2623 2.20361 0.861912
288 2 14.7961 2.02476 15.1013
289 2 7.90736 0.984376 2.41964
290 2 8.42535 2.08554 3.23522
291 2 9.33834 3.30929 9.83257
292 2 10.1754 1.88055 10.1119
293 2 1.75381 4.52695 9.90946
294 2 1.11552 4.78978 8.54253
295 2 12.2645 0.0873025 4.07993
296 2 12.0334 14.6435 5.15054
297 2 9.97133 5.30379 5.02216
298 2 9.51596 4.30903 3.95105
299 2 9.11176 6.41377 14.7882
300 2 7.57568 6.54 14.599
301 2 2.07189 2.92609 11.9449
302 2 2.69894 1.52435 11.845
303 2 10.8501 14.3815 10.4642
304 2 10.5118 -0.206863 11.478
305 2 0.274248 12.7719 0.61942
306 2 0.108425 11.2293 1.22179
307 2 9.70727 2.84376 13.3266
308 2 10.3129 3.49932 12.1129
309 2 7.16744 3.93944 3.6373
310 2 7.68964 3.77425 2.12389
311 2 2.7812 12.2345 3.34142
312 2 4.17512 12.108 2.65722
313 2 13.4252 2.63657 7.76521
314 2 14.4885 3.85196 7.85505
315 2 1.16553 7.50623 0.684607
316 2 1.80702 6.9489 2.01705
317 2 14.4305 9.58843 13.243
318 2 13.0187 10.0336 13.4694
319 2 5.70123 2.57075 8.68482
320 2 6.80813 3.05178 9.52933
321 2 5.35787 4.80808 5.12533
322 2 5.96938 3.53575 5.71789
323 2 13.0854 2.74416 13.3668
324 2 13.871 1.59988 12.7008
325 2 8.54415 7.16809 5.28465
326 2 9.76316 8.11779 5.62097
327 2 3.5805 7.58031 10.0651
328 2 3.76188 9.05652 10.3377
329 2 4.55808 11.8882 11.3243
330 2 3.56374 12.075 12.5347
331 2 0.334551 11.7965 12.6005
332 2 0.24849 12.8839 13.5924
333 2 6.35726 8.22802 5.65351
334 2 6.38531 8.12785 4.02112
335 2 10.214 9.5859 10.0692
336 2 10.6644 8.57403 11.1276
337 2 8.95214 14.8857 9.64428
338 2 7.3584 14.7538 9.70982
339 2 0.591563 15.0693 0.0182509
340 2 1.70203 14.3696 14.7724
341 2 6.4741 3.89198 0.306924
342 2 7.8908 4.74294 0.474307
343 2 13.7745 5.25403 11.174
344 2 12.6407 6.3597 11.1641
345 2 6.61181 10.3071 13.1711
346 2 7.38294 10.2018 14.4287
347 2 5.92965 6.53312 13.3142
348 2 6.65131 8.00804 13.4902
349 2 4.1508 10.9057 6.58172
350 2 3.72612 9.43762 6.27968
351 2 0.960879 1.05271 5.33877
352 2 1.48012 2.49213 5.40543
353 2 8.71011 13.4532 1.93204
354 2 8.99593 13.78 0.520382
355 2 3.28533 0.709593 5.89467
356 2 4.52263 -0.105961 5.1872
357 2 10.8957 8.12501 1.5533
358 2 9.392 8.09909 2.00114
359 2 2.85608 14.8006 10.6062
360 2 3.90293 13.7417 11.0449
361 2 6.48734 12.6937 1.54518
362 2 7.04029 11.6822 2.67807
363 2 2.24681 10.7375 14.3261
364 2 3.668 10.6767 14.8241
365 2 12.3482 3.69431 0.972113
366 2 13.2921 3.83378 2.19605
367 2 12.5073 12.8061 9.60602
368 2 12.5354 13.311 11.1419
369 2 13.9506 6.55755 12.8999
370 2 13.4462 7.1125 14.3857
371 2 11.8334 1.45816 2.05064
372 2 10.4376 0.894116 2.52875
373 2 0.844146 1.54638 0.605455
374 2 2.39804 1.38307 0.478242
375 2 7.77884 0.12269 7.66547
376 2 8.60235 1.23456 6.91956
377 2 12.4122 11.5105 0.551261
378 2 13.9301 11.2794 0.187093
379 2 13.8259 3.47873 9.96028
380 2 13.5184 3.1733 11.5056
381 2 12.9666 3.11167 5.2382
382 2 12.0906 4.05916 4.29522
383 2 5.48443 10.7696 1.07083
384 2 5.47524 10.05 -0.286949
ITEM: TIMESTEP
200
ITEM: NUMBER OF ATOMS
384
ITEM: BOX BOUNDS pp pp pp
-2.2989006347002316e-01 1.5229890063470055e+01
-2.0075667969305755e-01 1.5200756679693095e+01
-2.0224793522469486e-01 1.5202247935224751e+01
ITEM: ATOMS id type x y z
1 1 4.54784 5.66329 13.1885
2 1 14.5192 3.89693 14.0624
3 1 7.65186 10.5993 3.66314
4 1 1.66791 3.87239 4.61342
5 1 13.7185 9.94651 10.2231
6 1 9.92215 0.1503 -0.0321145
7 1 13.3274 9.5823 6.06446
8 1 3.48354 13.4437 7.75343
9 1 3.33261 6.40581 2.85534
10 1 5.44687 7.96965 2.41072
11 1 13.8477 6.48503 1.85148
12 1 0.516496 10.1296 13.7038
13 1 14.9179 5.31303 4.80231
14 1 9.87092 6.0142 7.79404
15 1 12.178 6.98664 3.96179
16 1 9.9993 2.89392 6.79959
17 1 4.66225 3.90256 11.2151
18 1 7.34286 10.4968 11.2535
19 1 8.32695 2.02414 14.4497
20 1 5.83589 13.8026 0.528947
21 1 -0.185727 13.1621 9.85405
22 1 12.5126 1.93795 6.06337
23 1 10.724 6.96728 14.0109
24 1 1.93315 7.79634 6.17625
25 1 10.5042 9.24644 5.68714
26 1 15.2126 8.16397 4.63341
27 1 1.70921 11.3417 4.41265
28 1 6.01597 0.373578 10.6149
29 1 12.242 8.02265 0.290821
30 1 2.20673 6.61154 12.3103
31 1 3.54402 5.64168 5.32726
32 1 7.71885 11.9603 7.84678
33 1 2.84755 3.71042 2.12663
34 1 2.92055 13.4298 0.183571
35 1 -0.117934 5.43447 7.57165
36 1 10.7648 14.6671 7.43902
37 1 1.40486 14.555 2.56753
38 1 6.02883 0.439191 13.3695
39 1 0.457351 9.97847 2.53431
40 1 12.3397 13.0554 12.6466
41 1 1.05321 12.0818 8.02335
42 1 13.7689 14.1565 0.213619
43 1 -0.0853301 15.1053 4.66741
44 1 8.61489 12.7363 11.7875
45 1 12.4629 6.28932 6.72211
46 1 9.78373 10.2813 8.24135
47 1 10.4993 10.9809 12.8615
48 1 8.90071 12.3105 5.30062
49 1 3.83299 1.58937 14.3729
50 1 6.51858 13.1088 13.4941
51 1 3.98782 5.97428 9.09764
52 1 11.2962 -0.010745 12.9542
53 1 7.60179 14.1108 3.44295
54 1 4.50281 2.20888 3.41692
55 1 12.2314 11.1749 8.50831
56 1 8.7793 10.3467 15.1776
57 1 1.71176 1.81866 8.45546
58 1 8.50673 5.55052 11.5922
59 1 1.29848 9.13649 8.42049
60 1 10.5996 10.567 3.29501
61 1 11.6139 4.28532 14.8246
62 1 10.6689 6.89612 10.5122
63 1 4.89806 10.056 9.93209
64 1 7.97082 8.00422 1.32259
65 1 14.2604 7.71535 8.53843
66 1 4.99311 14.7616 3.70093
67 1 5.69274 1.88165 6.76726
68 1 1.43079 0.374631 10.5397
69 1 11.403 12.3796 1.557
70 1 8.13582 4.22772 9.35623
71 1 15.1708 12.5167 5.65576
72 1 5.01515 11.2567 7.64002
73 1 0.812567 7.4832 14.3508
74 1 1.04965 4.30564 11.7763
75 1 -0.156592 0.739501 12.8014
76 1 12.5385 12.4129 6.16221
77 1 6.43507 1.0209 1.37367
78 1 5.57585 8.14328 7.12617
79 1 4.53437 4.0096 -0.14836
80 1 14.608 1.74615 0.219303
81 1 8.65718 1.25281 2.77214
82 1 10.1122 2.57291 10.3221
83 1 1.7653 4.39121 8.76929
84 1 12.6852 15.1814 4.15388
85 1 10.1914 4.77241 4.99729
86 1 8.38763 6.24648 15.0124
87 1 2.72698 2.27636 12.1296
88 1 9.87591 14.6353 10.7411
89 1 15.2288 11.3086 0.585531
90 1 9.67054 3.54012 12.7129
91 1 7.97553 3.80258 3.55129
92 1 3.2396 12.545 2.68056
93 1 13.4163 3.57153 8.13749
94 1 0.771297 7.4698 1.81519
95 1 13.3989 9.79106 12.7227
96 1 6.1019 2.69396 9.22383
97 1 5.70743 3.91031 5.06579
98 1 13.0365 1.92742 12.7336
99 1 8.96663 7.0576 5.4006
100 1 3.07671 8.14795 10.2279
101 1 4.61575 12.059 12.0414
102 1 0.562529 12.6123 12.2988
103 1 6.76445 8.44541 4.69596
104 1 9.87953 9.47305 10.7869
105 1 7.9298 14.536 8.99446
106 1 0.625506 14.292 14.4036
107 1 7.37416 3.85052 0.638237
108 1 13.3768 6.74651 11.0149
109 1 6.71955 9.47585 13.5935
110 1 6.85884 6.91518 13.1828
111 1 3.57213 9.92141 5.70628
112 1 1.57933 1.25948 5.7272
113 1 8.99608 13.1849 0.882818
114 1 3.88936 0.0458991 6.06052
115 1 10.448 8.15253 2.34426
116 1 3.86487 14.2306 10.3555
117 1 5.60817 11.6011 2.19377
118 1 3.13358 11.0935 14.1203
119 1 12.4414 2.97008 1.58285
120 1 12.5743 13.4948 10.0252
121 1 13.8282 6.36851 13.6956
122 1 11.3209 0.735945 2.09832
123 1 1.88378 1.29401 1.07385
124 1 8.0882 0.793857 6.65228
125 1 12.7344 10.5818 -0.190748
126 1 14.0199 3.85078 10.7514
127 1 12.6235 4.00172 4.07145
128 1 4.91567 9.62368 0.310687
129 2 4.43957 4.95555 12.5291
130 2 4.53757 5.31198 13.9099
131 2 14.3863 4.74773 14.1681
132 2 15.1267 3.82921 13.3869
133 2 7.21816 9.76677 4.21913
134 2 8.58722 10.4095 3.30361
135 2 0.956243 4.45743 4.51132
136 2 2.1142 3.83534 3.74288
137 2 14.4169 10.663 10.3246
138 2 13.4043 9.92987 11.3213
139 2 10.4207 0.423431 0.71708
140 2 9.12014 0.746307 15.15
141 2 13.5661 9.4496 7.0506
142 2 13.0059 10.6616 6.05103
143 2 3.65416 13.9838 8.51412
144 2 3.70307 13.9849 6.97125
145 2 3.03241 5.69537 2.27153
146 2 3.55564 6.06313 3.75234
147 2 4.99029 8.65289 1.76016
148 2 4.79641 7.20553 2.33192
149 2 13.231 6.50547 2.63696
150 2 14.7757 6.84855 2.08065
151 2 0.70361 9.18424 13.6283
152 2 0.4141 10.2912 14.7089
153 2 13.9384 4.89036 4.52642
154 2 14.8664 6.33045 4.7223
155 2 10.6409 6.22648 7.30571
156 2 9.44414 6.5975 7.27595
157 2 12.3699 7.07226 4.86792
158 2 11.2868 7.56892 3.87998
159 2 9.95481 3.03828 7.80538
160 2 9.98675 3.77149 6.44452
161 2 4.08042 3.04192 11.277
162 2 5.35609 3.60551 10.5345
163 2 8.04036 9.90687 11.1571
164 2 7.66276 11.3579 11.2588
165 2 8.16609 2.5948 15.107
166 2 7.36933 1.70461 14.1478
167 2 6.30504 13.5536 15.0795
168 2 4.77269 13.9671 0.294356
169 2 14.2468 13.3001 10.0457
170 2 0.145516 13.0445 10.841
171 2 11.4459 2.15614 6.13896
172 2 12.6414 1.03683 5.55063
173 2 11.0892 7.16605 13.158
174 2 11.193 7.59829 14.7615
175 2 1.16303 7.9073 5.43325
176 2 1.62917 8.16107 6.92975
177 2 11.3588 9.02438 5.86365
178 2 10.4271 9.89811 4.78216
179 2 14.4778 8.85165 5.18898
180 2 0.0275759 8.76313 3.80663
181 2 1.10539 11.7998 5.013
182 2 2.47049 10.7295 5.05086
183 2 6.17246 1.07004 9.99208
184 2 5.17972 15.1786 10.4863
185 2 12.6631 8.97617 0.215922
186 2 13.2089 7.46146 0.816766
187 2 2.40002 7.2716 11.5988
188 2 2.90059 6.23357 12.7642
189 2 3.30623 6.29357 5.99687
190 2 3.00033 4.77719 5.29175
191 2 7.62073 13.0287 8.24563
192 2 8.16917 11.9424 6.93002
193 2 2.27633 3.07111 1.7251
194 2 3.55669 3.07276 2.63458
195 2 2.68359 12.4727 15.0111
196 2 2.85397 13.1503 1.16246
197 2 -0.114738 5.6218 6.48851
198 2 15.0843 6.28094 7.78481
199 2 11.479 -0.0262713 7.67829
200 2 11.2811 13.8295 7.1482
201 2 2.08882 14.0514 2.90902
202 2 1.95488 15.0835 1.79623
203 2 6.27514 14.7897 13.5413
204 2 5.95172 0.507202 12.2919
205 2 1.006 9.13435 2.26705
206 2 0.732814 10.3948 3.50624
207 2 11.6954 13.9038 12.6614
208 2 11.7396 12.3026 12.7094
209 2 2.07064 12.5015 7.9328
210 2 0.379046 12.6724 8.6916
211 2 13.718 15.1404 0.36479
212 2 13.2959 14.135 14.7545
213 2 14.5048 -0.0528558 4.39093
214 2 0.316867 14.7913 3.71955
215 2 8.93925 13.5988 11.318
216 2 9.42328 12.3206 12.3736
217 2 13.1539 6.79635 7.10588
218 2 12.7602 5.28473 6.57428
219 2 8.76376 10.6281 8.12828
220 2 9.8607 9.73089 7.44091
221 2 10.3023 10.2579 12.2679
222 2 10.1929 10.7028 13.7333
223 2 9.79999 12.0339 5.1419
224 2 8.28243 11.4847 5.04013
225 2 4.74415 1.11286 14.0001
226 2 3.40891 1.67202 13.4539
227 2 7.43005 12.9646 12.9762
228 2 5.86167 12.6985 12.9812
229 2 3.24658 5.24646 8.87689
230 2 4.62432 5.39714 9.64722
231 2 10.8199 0.271344 13.8097
232 2 11.8463 0.760462 12.7779
233 2 7.95575 15.0226 3.32006
234 2 8.05435 13.7504 4.19041
235 2 4.98852 1.40625 2.76031
236 2 5.29483 2.71288 3.94768
237 2 12.43 10.7908 9.38394
238 2 11.2964 10.9125 8.25478
239 2 8.30324 9.54872 0.416284
240 2 8.53587 11.333 0.0860074
241 2 1.50461 1.48568 7.3782
242 2 1.78169 2.85468 8.50495
243 2 8.89543 4.80108 12.1293
244 2 7.83889 6.24678 12.1469
245 2 1.80184 8.76389 9.10977
246 2 1.44069 10.2217 8.28709
247 2 10.9198 11.4731 2.92133
248 2 10.5887 9.73644 2.74768
249 2 11.1621 5.39627 14.839
250 2 11.1269 3.99487 14.0439
251 2 10.8587 6.41284 9.70961
252 2 9.78463 6.43444 10.8093
253 2 5.84122 10.1903 10.1714
254 2 4.79563 10.8269 9.09958
255 2 8.15741 7.32718 0.702744
256 2 7.21939 8.01916 1.79865
257 2 13.9534 7.60494 9.52414
258 2 -0.146554 8.17998 8.69416
259 2 5.86969 14.4161 3.76127
260 2 4.65752 13.9068 3.67009
261 2 6.54175 1.42613 6.53153
262 2 4.88578 1.22387 6.57818
263 2 1.61119 0.789132 9.74
264 2 0.953858 14.9348 10.2913
265 2 10.5947 12.6194 1.02275
266 2 11.9324 13.1041 1.68677
267 2 8.21418 4.96 10.285
268 2 8.61324 4.78113 8.59606
269 2 -0.0597029 13.4427 5.41886
270 2 0.2931 12.2781 6.46224
271 2 5.99546 11.4106 7.4045
272 2 4.67281 12.1149 7.48215
273 2 -0.138327 7.31575 14.4183
274 2 1.26761 6.93288 13.6622
275 2 1.44196 5.13402 11.9294
276 2 0.2854 4.42568 11.2986
277 2 0.391007 0.581666 11.9633
278 2 0.269296 0.510702 13.5849
279 2 13.4814 12.5526 5.8068
280 2 12.4408 12.0092 6.97532
281 2 6.22868 1.5008 0.457838
282 2 6.30401 0.0954211 1.24318
283 2 5.36216 7.25618 7.62721
284 2 5.24631 8.73934 7.59004
285 2 4.38547 3.06239 15.0705
286 2 3.94522 4.03458 0.722591
287 2 13.9457 2.19156 0.814277
288 2 14.9389 2.41413 14.9518
289 2 7.81769 1.33659 2.15605
290 2 8.68497 2.1043 3.30912
291 2 9.64825 2.99895 9.77797
292 2 10.4959 1.73804 9.77954
293 2 1.33481 4.55295 9.72311
294 2 0.919719 4.86588 8.2075
295 2 12.255 0.07678 3.40449
296 2 12.5877 14.4641 4.62751
297 2 10.0557 5.79587 5.00523
298 2 9.43275 4.46307 4.40096
299 2 9.29384 6.6652 14.5878
300 2 7.62173 6.36081 14.3934
301 2 2.06368 3.0163 12.0375
302 2 2.33809 1.50281 11.5678
303 2 10.7521 14.426 10.2004
304 2 10.4123 14.8725 11.4528
305 2 -0.0884918 12.2755 0.758288
306 2 0.15384 10.9962 1.43774
307 2 9.18725 2.88323 13.4022
308 2 10.1573 3.08584 11.8848
309 2 7.16264 3.95117 4.14835
310 2 7.92832 3.9611 2.63574
311 2 2.51553 12.2047 3.25697
312 2 3.94408 11.9348 2.45987
313 2 13.3058 2.82302 7.4693
314 2 14.2019 4.09608 7.93951
315 2 1.02639 7.39375 0.841403
316 2 1.52228 7.09256 2.14168
317 2 14.4425 9.89049 12.9742
318 2 12.9164 10.5135 13.375
319 2 5.84428 2.44837 8.27339
320 2 6.95563 3.32089 9.19435
321 2 4.86099 4.59975 5.1341
322 2 5.69507 3.22625 5.85942
323 2 12.96 2.58727 13.3471
324 2 13.9158 1.46345 12.8049
325 2 8.1695 7.19632 4.83656
326 2 9.43133 7.95973 5.36325
327 2 3.60832 7.33008 9.813
328 2 3.83831 8.87862 10.1084
329 2 4.8135 11.478 11.3219
330 2 4.09837 11.589 12.857
331 2 0.285747 11.7641 12.8322
332 2 0.294453 13.337 12.8858
333 2 6.36819 8.6446 5.59801
334 2 6.27548 8.17119 3.92845
335 2 9.69883 9.74385 9.91506
336 2 10.1737 8.54064 10.5892
337 2 8.67763 14.9107 9.61304
338 2 7.15648 14.6616 9.70252
339 2 0.182379 14.7837 -0.115171
340 2 1.61623 14.0552 14.7381
341 2 6.34017 4.05183 0.616373
342 2 7.64455 4.7309 0.559003
343 2 13.643 5.74403 10.7787
344 2 12.3838 6.85976 10.7699
345 2 7.01128 10.0333 12.7491
346 2 7.43532 9.67675 14.2249
347 2 5.91548 6.51186 13.077
348 2 6.81962 7.98251 13.1955
349 2 3.86572 10.3848 6.56135
350 2 2.79798 9.29377 5.89289
351 2 0.785581 0.560518 5.2939
352 2 1.25354 2.20862 5.34117
353 2 8.80195 13.3176 1.73828
354 2 9.24356 14.0217 0.443008
355 2 2.95047 0.447318 5.99679
356 2 4.06504 15.1794 5.02913
357 2 11.2166 7.98276 1.53608
358 2 9.5177 7.76792 1.8878
359 2 3.14887 14.7332 10.4578
360 2 4.22026 13.5131 11.0476
361 2 5.73286 12.3655 1.75233
362 2 6.53882 11.2226 2.69055
363 2 2.29783 10.6915 13.7973
364 2 3.59253 10.3576 14.79
365 2 12.0711 3.62043 0.834572
366 2 12.6816 3.362 2.40259
367 2 12.4638 12.6547 9.44367
368 2 12.3615 13.2989 11.0545
369 2 13.6285 6.57561 12.7401
370 2 13.0125 6.51507 14.0338
371 2 11.5289 1.70048 1.8428
372 2 10.46 1.05937 2.48084
373 2 0.90933 1.54692 0.802227
374 2 2.34369 1.30956 0.207027
375 2 8.04082 0.227268 7.35991
376 2 8.67342 1.58755 6.76875
377 2 12.1367 11.1329 0.517737
378 2 13.6239 10.7011 0.100841
379 2 13.7944 3.66787 9.62264
380 2 13.3996 3.13863 11.2227
381 2 12.4772 3.2909 4.73359
382 2 11.7319 4.43991 4.10277
383 2 5.4087 10.5374 0.572207
384 2 5.2803 9.37621 14.8013
ITEM: TIMESTEP
400
ITEM: NUMBER OF ATOMS
384
ITEM: BOX BOUNDS pp pp pp
-1.7792508045011868e-01 1.5177925080450148e+01
-7.2874872329593998e-02 1.5072874872329617e+01
-1.0143935956222627e-01 1.5101439359562306e+01
ITEM: ATOMS id type x y z
1 1 4.46458 5.5254 12.7257
2 1 14.8681 3.53094 14.0498
3 1 7.29481 10.4815 3.59779
4 1 1.75556 3.44426 4.3671
5 1 13.6966 9.68515 10.0857
6 1 9.39601 0.00200549 14.9256
7 1 13.3855 9.30907 6.48514
8 1 3.44206 13.0438 7.90352
9 1 3.43145 5.9592 2.43807
10 1 5.55595 7.51879 2.02985
11 1 14.0755 6.80109 2.10227
12 1 0.594812 10.0952 13.7064
13 1 -0.0693606 5.30871 4.71359
14 1 9.53993 6.34653 8.14796
15 1 12.2447 6.64545 4.37308
16 1 10.2649 2.8529 6.83168
17 1 4.45945 3.94087 10.7064
18 1 6.99766 10.3959 11.022
19 1 7.95944 1.98808 14.4225
20 1 5.76804 13.3303 0.558399
21 1 -0.0781045 13.1762 9.82177
22 1 12.1239 1.94382 5.26477
23 1 10.804 6.45495 13.5261
24 1 1.93479 7.83586 6.24298
25 1 10.684 9.01717 5.77086
26 1 15.0448 8.03027 4.75535
27 1 1.6659 11.1485 4.46413
28 1 5.9528 0.568656 10.5431
29 1 12.1164 7.69535 0.276446
30 1 2.04755 6.63785 12.0894
31 1 3.37902 5.58698 5.18884
32 1 7.58693 11.9162 7.76479
33 1 3.26365 3.52828 1.65723
34 1 3.1774 13.0395 0.193109
35 1 -0.168238 4.98223 7.31764
36 1 10.7468 14.5443 7.38836
37 1 1.16818 14.3471 2.03657
38 1 5.98174 0.779152 13.1559
39 1 0.319489 9.65891 2.69691
40 1 12.2917 13.1451 12.7557
41 1 1.21621 11.7704 8.12529
42 1 13.3045 13.6434 -0.0155657
43 1 15.0765 14.8541 4.36372
44 1 8.74138 12.7162 11.8699
45 1 12.0212 5.98742 7.12536
46 1 9.83967 10.2301 8.01268
47 1 10.3977 10.8394 12.6807
48 1 8.55582 12.2131 5.35735
49 1 3.68145 1.64448 14.1217
50 1 6.36592 13.2964 13.2062
51 1 4.09478 6.01148 8.52787
52 1 11.2377 0.286332 12.5094
53 1 7.40643 13.8246 3.52389
54 1 4.62518 1.99171 3.49978
55 1 12.139 11.3318 8.69829
56 1 9.11315 10.2001 -0.0146658
57 1 2.2065 1.56091 8.32233
58 1 8.63961 5.29839 11.65
59 1 0.949622 9.23527 8.48456
60 1 10.0525 10.4071 3.5452
61 1 11.8481 3.92891 14.0761
62 1 10.2849 6.91939 10.5176
63 1 4.68804 9.86645 9.62241
64 1 8.23635 7.89092 1.47999
65 1 14.3107 7.59037 7.978
66 1 4.81711 14.4565 3.59046
67 1 5.77751 1.67749 6.6191
68 1 1.62602 0.178872 10.3859
69 1 11.4306 12.4636 1.68412
70 1 8.41045 3.9477 9.17646
71 1 -0.113422 12.5059 5.75874
72 1 5.32529 11.0369 7.32441
73 1 0.778861 7.52217 14.2549
74 1 0.602639 4.32494 11.5632
75 1 0.00581794 1.09594 12.4656
76 1 12.44 12.4101 6.04443
77 1 6.25738 0.836894 1.34003
78 1 5.83204 7.9071 7.37611
79 1 4.86836 4.08582 14.925
80 1 14.3549 1.17805 0.447416
81 1 8.37938 1.05961 2.82672
82 1 10.113 2.20275 10.3634
83 1 1.82063 4.17459 8.91651
84 1 12.376 14.8137 3.91007
85 1 9.84262 4.70154 4.94728
86 1 8.25216 5.78837 14.9345
87 1 2.62269 2.2935 11.6285
88 1 10.1882 14.5179 10.3108
89 1 14.767 11.2176 0.74939
90 1 9.79763 3.10555 12.8359
91 1 7.69418 3.47834 3.63488
92 1 3.38639 12.5184 2.87422
93 1 13.0804 3.7181 7.79007
94 1 1.34255 7.61552 1.57156
95 1 13.3423 9.50268 12.7185
96 1 6.10973 2.76752 8.90722
97 1 5.85245 3.9861 5.35714
98 1 12.7391 2.2917 12.3936
99 1 8.72189 7.07141 5.84668
100 1 2.88245 8.03949 9.90258
101 1 4.36168 11.7726 11.7379
102 1 1.11655 12.1127 11.7228
103 1 6.38524 8.30056 4.75087
104 1 9.31536 9.40782 10.5991
105 1 7.97041 14.4769 8.7142
106 1 0.922188 14.0449 14.151
107 1 7.02341 3.9174 1.21689
108 1 12.9525 6.6914 10.5775
109 1 6.88382 9.41889 13.5149
110 1 6.8064 6.79078 12.929
111 1 3.70127 9.69994 5.26488
112 1 1.48496 1.16812 5.74022
113 1 8.76413 12.8404 1.13328
114 1 3.6624 14.9263 6.1412
115 1 10.7284 8.08036 2.56308
116 1 3.80804 14.0696 10.246
117 1 5.41905 11.1298 1.86385
118 1 3.12011 10.874 13.9982
119 1 12.3628 2.86821 1.37028
120 1 12.621 13.4523 10.1085
121 1 13.866 6.63467 13.2773
122 1 10.8297 0.686092 2.21858
123 1 1.8044 1.51094 0.92345
124 1 8.3222 0.870144 6.12651
125 1 12.4102 10.276 -0.0214474
126 1 13.4253 4.17082 10.6979
127 1 13.0685 4.11127 3.92298
128 1 4.73791 9.38221 0.0637704
129 2 4.66195 4.94737 11.9416
130 2 4.63092 5.28448 13.7747
131 2 14.2875 4.24783 14.362
132 2 -0.0912385 4.12656 13.2629
133 2 7.06469 9.53876 3.94771
134 2 8.19063 10.4314 3.136
135 2 1.16119 4.05674 4.41241
136 2 1.9801 2.95002 3.46779
137 2 14.6019 9.80533 9.97583
138 2 13.5612 9.83177 10.9593
139 2 9.92276 0.383034 0.529835
140 2 8.83694 0.663413 14.8167
141 2 13.8002 8.85108 7.16504
142 2 13.757 10.2588 6.63228
143 2 3.64413 13.663 8.80117
144 2 3.67911 13.6296 6.93568
145 2 3.06092 5.1656 2.11046
146 2 3.48244 5.84797 3.58977
147 2 5.32421 8.24897 1.33491
148 2 4.93086 6.90912 2.2151
149 2 13.8611 7.32839 2.87642
150 2 14.9101 6.91259 1.81977
151 2 0.697809 9.06795 13.9747
152 2 0.203201 10.481 14.5558
153 2 14.656 4.76116 4.52897
154 2 15.0943 6.23425 4.29231
155 2 10.496 6.2544 7.70956
156 2 9.23841 6.70348 7.31643
157 2 11.8712 6.28986 5.34184
158 2 11.6774 7.14816 3.65517
159 2 10.3931 3.17534 7.76447
160 2 10.0342 3.44148 6.27018
161 2 3.98538 2.99714 10.7973
162 2 4.99208 3.59793 9.95593
163 2 7.78917 9.78946 10.7899
164 2 7.48251 11.2977 11.2066
165 2 7.72372 2.67762 0.0155703
166 2 7.15226 1.57404 14.0908
167 2 6.48792 13.2339 14.9299
168 2 4.66502 13.2744 0.399045
169 2 14.5584 13.6079 9.83973
170 2 0.252238 12.6209 10.6898
171 2 11.2819 2.11465 5.80932
172 2 12.1879 1.00092 4.94964
173 2 10.9144 6.40404 12.5397
174 2 11.286 7.16774 14.0061
175 2 1.00947 7.74838 5.90922
176 2 1.62931 8.24355 7.05757
177 2 11.7135 9.16842 5.78225
178 2 10.5409 9.52255 4.88573
179 2 14.2509 8.39226 5.27295
180 2 -0.159957 8.53799 4.05284
181 2 0.915854 11.6963 5.04193
182 2 2.52646 10.867 4.92249
183 2 5.94889 1.24156 9.90581
184 2 5.11074 14.7925 10.4237
185 2 12.1408 8.67132 0.268575
186 2 12.7798 7.5329 1.09261
187 2 2.28168 7.35095 11.5272
188 2 2.99323 6.11976 12.2315
189 2 2.71631 6.22694 5.53201
190 2 2.89378 4.66898 4.97052
191 2 7.63359 12.6882 8.37329
192 2 7.93929 12.146 6.9606
193 2 2.6162 2.89151 1.33784
194 2 4.04889 2.90389 2.18594
195 2 3.40061 12.1597 14.795
196 2 3.01698 12.7256 1.0599
197 2 0.218818 5.02052 6.44878
198 2 15.1245 5.91666 7.57518
199 2 11.416 14.8621 8.22236
200 2 11.2292 14.0775 6.86969
201 2 2.12093 14.1491 2.41526
202 2 1.40809 0.0259778 1.55058
203 2 6.32498 15.0566 13.2041
204 2 6.06941 0.729695 12.2609
205 2 1.11393 9.02764 2.17259
206 2 1.07862 10.1349 3.24319
207 2 11.7808 13.9431 12.6916
208 2 11.5603 12.4065 12.8982
209 2 2.22076 12.1948 8.04622
210 2 0.750605 12.3185 8.70058
211 2 13.6948 14.4966 -0.0510434
212 2 12.7465 13.282 14.3669
213 2 14.0253 14.811 4.27247
214 2 0.144209 14.7302 3.42397
215 2 9.03982 13.2207 11.1285
216 2 9.60191 12.0767 12.1382
217 2 12.7484 6.37844 7.72217
218 2 12.2634 5.08182 7.28245