ITEM: TIMESTEP
0
ITEM: NUMBER OF ATOMS
384
ITEM: BOX BOUNDS pp pp pp
-3.1180958401302572e-01 1.5311809584013066e+01
-3.1180958401302572e-01 1.5311809584013066e+01
-3.1180958401302572e-01 1.5311809584013066e+01
ITEM: ATOMS id type x y z
1 1 4.57679 5.50123 13.6944
2 1 14.8875 3.66367 14.1079
3 1 8.20115 10.8513 3.91518
4 1 1.55859 4.11103 4.68534
5 1 14.0046 11.0534 10.4291
6 1 10.1562 -0.0244194 -0.0179537
7 1 13.1461 9.78511 5.92123
8 1 3.48566 13.6848 7.87681
9 1 3.32305 6.30373 3.20589
10 1 5.30735 8.37688 2.36991
11 1 13.7801 6.32188 1.70807
12 1 0.692367 10.1945 14.1186
13 1 15.0627 5.43363 4.6639
14 1 9.98456 5.97612 7.92121
15 1 12.4056 7.19481 3.96576
16 1 9.83562 2.64919 6.79506
17 1 4.60459 4.17249 11.4106
18 1 7.55062 10.3381 11.1669
19 1 8.27543 1.89543 14.4455
20 1 5.83253 14.0038 0.549654
21 1 -0.277952 13.5963 10.2649
22 1 12.6457 2.09652 6.28487
23 1 10.7129 7.40871 14.2399
24 1 2.2119 7.88472 6.40809
25 1 10.4542 9.69036 5.97773
26 1 -0.282536 8.22967 4.81222
27 1 1.6652 11.2607 4.20606
28 1 6.17365 -0.094545 10.725
29 1 12.1932 8.4542 0.381712
30 1 2.29814 6.67565 12.652
31 1 3.74006 5.65533 5.77839
32 1 7.64075 12.3667 7.75101
33 1 2.57949 3.81144 2.08856
34 1 3.31976 13.3432 0.0677147
35 1 -0.0967938 5.37115 7.46928
36 1 11.1426 14.5448 7.59235
37 1 1.26174 14.8074 2.57217
38 1 6.41618 0.335516 13.3898
39 1 0.207637 9.92258 2.18818
40 1 12.6731 13.1901 12.8323
41 1 1.29363 11.9761 7.9846
42 1 13.2286 14.8362 0.439531
43 1 -0.123887 15.1905 5.01064
44 1 8.80795 12.7708 12.0788
45 1 12.4172 6.75949 6.79319
46 1 9.49869 10.6014 8.40823
47 1 10.544 10.9934 13.3575
48 1 8.99001 12.8372 5.44675
49 1 4.04829 1.51716 14.6149
50 1 6.69928 13.1999 13.7041
51 1 4.43379 6.10378 9.26553
52 1 11.4216 -0.0969869 13.0672
53 1 8.10878 14.4288 3.40524
54 1 4.3962 2.37166 3.28729
55 1 12.1316 11.4523 8.45349
56 1 8.7458 10.8517 -0.213292
57 1 1.53862 1.7361 8.48855
58 1 8.69585 5.89847 11.616
59 1 1.22107 9.19196 8.49846
60 1 10.635 10.5731 3.14594
61 1 11.4957 4.51089 15.2148
62 1 10.9209 6.7156 10.446
63 1 4.94638 10.4223 10.3546
64 1 7.94749 8.55464 1.09697
65 1 14.5919 7.80968 8.4877
66 1 5.26248 14.7619 3.62401
67 1 5.62202 2.26942 6.97039
68 1 1.29568 -0.0251437 10.348
69 1 11.6689 12.7598 1.5126
70 1 8.10674 4.34492 9.29769
71 1 15.2574 12.5827 5.71394
72 1 5.13758 11.4238 7.95676
73 1 0.807368 7.59384 14.5622
74 1 1.07308 4.35508 11.6836
75 1 -0.103901 0.899318 12.6958
76 1 12.4336 12.7126 5.99741
77 1 6.5124 0.898083 1.44852
78 1 5.22926 7.74021 7.34722
79 1 4.69818 3.85809 0.25821
80 1 14.6318 1.53081 0.260033
81 1 8.7843 1.26425 2.88569
82 1 10.1715 2.86217 10.2074
83 1 1.97586 4.56417 8.94346
84 1 12.6683 15.2799 4.82665
85 1 10.1623 4.44247 4.67024
86 1 8.26116 6.29332 15.2182
87 1 2.75694 2.33071 12.3211
88 1 10.1168 15.0402 10.6766
89 1 0.0214213 11.8389 0.424274
90 1 9.92368 3.73613 12.9889
91 1 7.93039 3.8304 3.09944
92 1 3.45334 12.7245 2.72154
93 1 13.7442 3.34545 8.32257
94 1 1.06378 7.50528 1.70711
95 1 13.5608 9.51663 12.896
96 1 6.16563 2.34739 9.6158
97 1 6.00658 4.12469 4.96415
98 1 13.0409 2.11594 12.6389
99 1 9.44842 7.22402 5.61094
100 1 3.08802 8.31472 10.412
101 1 4.27645 12.564 12.0172
102 1 0.247817 12.7339 12.6695
103 1 6.92237 8.32243 4.80264
104 1 10.2096 9.4039 11.0142
105 1 8.10819 14.6608 9.11245
106 1 0.724807 14.5893 14.8093
107 1 7.38606 3.87893 0.612739
108 1 13.59 6.17467 11.3541
109 1 6.57455 9.82429 14.0409
110 1 6.72525 7.05567 13.1783
111 1 3.66994 10.3273 5.96103
112 1 1.66543 1.60839 5.77048
113 1 9.05834 13.0173 1.11863
114 1 4.11235 0.213829 6.02437
115 1 10.3679 8.11545 2.36753
116 1 3.8208 14.5044 10.4834
117 1 6.27696 11.8524 2.07137
118 1 3.1417 11.1769 14.1451
119 1 12.971 3.21476 1.56998
120 1 12.4061 13.5738 10.1924
121 1 14.0948 6.56232 13.8874
122 1 11.4172 0.689063 2.37021
123 1 1.65778 1.52802 1.12949
124 1 7.74882 0.714644 6.86752
125 1 13.0368 10.8806 0.0461404
126 1 14.1536 3.59273 10.8941
127 1 12.9937 3.74289 4.44237
128 1 4.93288 10.2326 0.481908
129 2 4.52916 4.87676 12.9369
130 2 4.69703 5.06241 14.547
131 2 14.6886 4.58995 14.3163
132 2 0.0945933 3.63697 13.6264
133 2 7.74221 10.0755 4.24889
134 2 8.99342 10.7228 3.34745
135 2 0.788771 4.72927 4.53377
136 2 1.81069 3.95163 3.77685
137 2 14.4008 11.9252 10.4575
138 2 13.9069 10.7269 11.3647
139 2 10.6725 0.201823 0.765773
140 2 9.47367 0.652849 -0.0632908
141 2 13.5922 9.97565 6.76473
142 2 13.2152 10.5455 5.32572
143 2 3.67781 14.0964 8.7488
144 2 3.53939 14.3835 7.27865
145 2 3.09567 5.45978 2.78243
146 2 3.60518 6.19337 4.09913
147 2 5.08995 9.05489 1.76222
148 2 4.54185 7.79795 2.5309
149 2 13.4381 6.67871 2.59019
150 2 14.7355 6.25337 1.79471
151 2 0.77524 9.18308 14.2443
152 2 0.388115 10.6288 14.9234
153 2 14.1894 4.91997 4.56536
154 2 14.9228 6.4107 4.60147
155 2 10.8762 5.93786 7.61697
156 2 9.58879 6.53361 7.20672
157 2 12.1014 7.06547 4.8105
158 2 11.5829 7.27566 3.48345
159 2 9.70669 3.06202 7.62541
160 2 9.96186 3.35305 6.0781
161 2 3.89127 3.51534 11.556
162 2 5.31618 3.63484 11.0911
163 2 8.36256 9.80951 10.99
164 2 7.91946 11.2623 11.3115
165 2 7.80256 2.56448 14.9346
166 2 7.58248 1.21916 14.1315
167 2 6.10462 13.5421 -0.242407
168 2 4.85977 13.825 0.528199
169 2 14.4101 13.8153 10.1623
170 2 -0.0704958 13.4422 11.1966
171 2 11.7088 2.1063 6.54679
172 2 12.6961 1.18401 5.89058
173 2 10.9921 7.5299 13.3514
174 2 11.2636 8.01166 14.7268
175 2 1.57728 7.89927 5.7134
176 2 1.87051 8.36741 7.16573
177 2 11.4302 9.71213 6.20698
178 2 10.3486 10.1292 5.1128
179 2 14.4149 8.445 5.04536
180 2 0.00164071 8.8165 4.03796
181 2 1.02838 11.8189 4.67407
182 2 2.36173 10.8675 4.79517
183 2 6.32838 0.734699 10.265
184 2 5.21972 -0.301306 10.6492
185 2 12.568 9.37229 0.310345
186 2 12.8634 7.95827 0.824663
187 2 2.56428 7.41349 12.0109
188 2 3.14156 6.4193 13.0935
189 2 3.16723 6.41343 5.9805
190 2 3.10221 4.98312 5.63197
191 2 7.73547 13.1577 8.33842
192 2 8.06104 12.6116 6.87934
193 2 1.75422 3.38105 1.7562
194 2 3.25148 3.1727 2.47226
195 2 3.15037 12.6412 14.9757
196 2 3.16776 12.9566 0.983888
197 2 0.0720948 5.37286 6.52711
198 2 -0.245356 6.34024 7.61737
199 2 11.6512 14.8569 8.35832
200 2 11.802 13.9131 7.23812
201 2 2.07792 14.3411 2.56175
202 2 1.50629 0.044002 2.08403
203 2 6.3968 14.9261 13.4491
204 2 6.20534 0.425411 12.4267
205 2 0.660795 9.1318 1.85703
206 2 0.694078 10.391 2.87312
207 2 12.3708 14.0972 13.0916
208 2 12.1841 12.5232 13.366
209 2 2.09163 12.5603 7.87369
210 2 0.901668 12.2269 8.80367
211 2 13.6981 0.109016 0.335681
212 2 13.4443 14.3386 15.279
213 2 14.5376 15.2076 4.93591
214 2 0.228484 14.9795 4.13145
215 2 9.24837 13.4527 11.622
216 2 9.52013 12.2417 12.5392
217 2 12.875 7.30125 7.44426
218 2 13.1287 6.09272 6.70831
219 2 8.70364 11.2231 8.31889
220 2 9.67729 10.2938 7.51515
221 2 10.4955 10.2933 12.7118
222 2 10.0325 10.7711 14.1408
223 2 9.87115 13.0955 5.5737
224 2 8.95145 12.0108 4.93614
225 2 4.74251 0.928236 14.2575
226 2 3.48888 1.81195 13.8977
227 2 7.56401 13.1017 13.1985
228 2 6.02622 12.6782 13.2435
229 2 3.65548 5.64787 8.88705
230 2 4.53028 5.65688 10.1121
231 2 10.7483 -0.0654962 13.7661
232 2 11.7812 0.808853 13.0779
233 2 8.36482 -0.291862 3.46612
234 2 8.34757 14.0066 4.25098
235 2 5.1094 1.81781 2.95108
236 2 4.6411 2.96006 4.03817
237 2 12.5339 11.0417 9.22128
238 2 11.1841 11.2095 8.49369
239 2 8.60742 10.312 0.576946
240 2 8.69537 11.7883 0.0583599
241 2 1.42282 1.68337 7.50469
242 2 1.60998 2.65673 8.73322
243 2 8.87953 5.11923 12.1645
244 2 8.03029 6.40716 12.1505
245 2 1.95332 8.95172 9.16853
246 2 1.28006 10.1574 8.3047
247 2 11.2632 11.2403 2.79611
248 2 10.7957 9.70539 2.72449
249 2 11.5653 5.40273 -0.288322
250 2 11.1896 4.32648 14.2564
251 2 10.4204 6.65681 9.62663
252 2 10.2607 6.46258 11.0571
253 2 5.87632 10.1769 10.5904
254 2 4.94364 10.8143 9.46912
255 2 7.91802 7.6928 0.604333
256 2 7.17835 8.74025 1.63464
257 2 14.2008 7.92642 9.35992
258 2 -0.267797 8.44072 8.55252
259 2 6.16366 14.3915 3.8125
260 2 4.75946 14.0077 3.26281
261 2 6.35085 1.60272 6.90857
262 2 4.84301 1.75402 6.76165
263 2 1.34137 0.662419 9.62968
264 2 0.817817 14.7755 10.0578
265 2 10.8342 13.0339 1.10914
266 2 12.2496 13.5788 1.43103
267 2 7.99168 4.93257 10.0429
268 2 8.59208 4.87508 8.55834
269 2 -0.0863874 13.5026 5.64494
270 2 0.00602987 12.1735 6.56287
271 2 6.0476 11.6847 7.84187
272 2 4.65027 12.2574 7.8746
273 2 -0.10786 7.21382 14.4417
274 2 1.40859 7.20909 13.8607
275 2 1.10879 5.19843 12.1297
276 2 0.142322 4.18446 11.4107
277 2 0.192301 0.569522 11.8253
278 2 0.262058 0.216297 13.3227
279 2 13.325 12.966 5.76917
280 2 12.474 12.1815 6.79075
281 2 6.96454 1.33987 0.72514
282 2 6.22808 -0.0168944 1.14781
283 2 5.28424 6.95392 7.95734
284 2 5.69738 8.44349 7.79401
285 2 4.59695 2.96295 -0.156096
286 2 4.05776 3.8329 1.0606
287 2 14.2623 2.20361 0.861912
288 2 14.7961 2.02476 15.1013
289 2 7.90736 0.984376 2.41964
290 2 8.42535 2.08554 3.23522
291 2 9.33834 3.30929 9.83257
292 2 10.1754 1.88055 10.1119
293 2 1.75381 4.52695 9.90946
294 2 1.11552 4.78978 8.54253
295 2 12.2645 0.0873025 4.07993
296 2 12.0334 14.6435 5.15054
297 2 9.97133 5.30379 5.02216
298 2 9.51596 4.30903 3.95105
299 2 9.11176 6.41377 14.7882
300 2 7.57568 6.54 14.599
301 2 2.07189 2.92609 11.9449
302 2 2.69894 1.52435 11.845
303 2 10.8501 14.3815 10.4642
304 2 10.5118 -0.206863 11.478
305 2 0.274248 12.7719 0.61942
306 2 0.108425 11.2293 1.22179
307 2 9.70727 2.84376 13.3266
308 2 10.3129 3.49932 12.1129
309 2 7.16744 3.93944 3.6373
310 2 7.68964 3.77425 2.12389
311 2 2.7812 12.2345 3.34142
312 2 4.17512 12.108 2.65722
313 2 13.4252 2.63657 7.76521
314 2 14.4885 3.85196 7.85505
315 2 1.16553 7.50623 0.684607
316 2 1.80702 6.9489 2.01705
317 2 14.4305 9.58843 13.243
318 2 13.0187 10.0336 13.4694
319 2 5.70123 2.57075 8.68482
320 2 6.80813 3.05178 9.52933
321 2 5.35787 4.80808 5.12533
322 2 5.96938 3.53575 5.71789
323 2 13.0854 2.74416 13.3668
324 2 13.871 1.59988 12.7008
325 2 8.54415 7.16809 5.28465
326 2 9.76316 8.11779 5.62097
327 2 3.5805 7.58031 10.0651
328 2 3.76188 9.05652 10.3377
329 2 4.55808 11.8882 11.3243
330 2 3.56374 12.075 12.5347
331 2 0.334551 11.7965 12.6005
332 2 0.24849 12.8839 13.5924
333 2 6.35726 8.22802 5.65351
334 2 6.38531 8.12785 4.02112
335 2 10.214 9.5859 10.0692
336 2 10.6644 8.57403 11.1276
337 2 8.95214 14.8857 9.64428
338 2 7.3584 14.7538 9.70982
339 2 0.591563 15.0693 0.0182509
340 2 1.70203 14.3696 14.7724
341 2 6.4741 3.89198 0.306924
342 2 7.8908 4.74294 0.474307
343 2 13.7745 5.25403 11.174
344 2 12.6407 6.3597 11.1641
345 2 6.61181 10.3071 13.1711
346 2 7.38294 10.2018 14.4287
347 2 5.92965 6.53312 13.3142
348 2 6.65131 8.00804 13.4902
349 2 4.1508 10.9057 6.58172
350 2 3.72612 9.43762 6.27968
351 2 0.960879 1.05271 5.33877
352 2 1.48012 2.49213 5.40543
353 2 8.71011 13.4532 1.93204
354 2 8.99593 13.78 0.520382
355 2 3.28533 0.709593 5.89467
356 2 4.52263 -0.105961 5.1872
357 2 10.8957 8.12501 1.5533
358 2 9.392 8.09909 2.00114
359 2 2.85608 14.8006 10.6062
360 2 3.90293 13.7417 11.0449
361 2 6.48734 12.6937 1.54518
362 2 7.04029 11.6822 2.67807
363 2 2.24681 10.7375 14.3261
364 2 3.668 10.6767 14.8241
365 2 12.3482 3.69431 0.972113
366 2 13.2921 3.83378 2.19605
367 2 12.5073 12.8061 9.60602
368 2 12.5354 13.311 11.1419
369 2 13.9506 6.55755 12.8999
370 2 13.4462 7.1125 14.3857
371 2 11.8334 1.45816 2.05064
372 2 10.4376 0.894116 2.52875
373 2 0.844146 1.54638 0.605455
374 2 2.39804 1.38307 0.478242
375 2 7.77884 0.12269 7.66547
376 2 8.60235 1.23456 6.91956
377 2 12.4122 11.5105 0.551261
378 2 13.9301 11.2794 0.187093
379 2 13.8259 3.47873 9.96028
380 2 13.5184 3.1733 11.5056
381 2 12.9666 3.11167 5.2382
382 2 12.0906 4.05916 4.29522
383 2 5.48443 10.7696 1.07083
384 2 5.47524 10.05 -0.286949
ITEM: TIMESTEP
200
ITEM: NUMBER OF ATOMS
384
ITEM: BOX BOUNDS pp pp pp
-2.2989006347002316e-01 1.5229890063470055e+01
-2.0075667969305755e-01 1.5200756679693095e+01
-2.0224793522469486e-01 1.5202247935224751e+01
ITEM: ATOMS id type x y z
1 1 4.53963 5.65101 13.1949
2 1 14.5199 3.88164 14.0796
3 1 7.66106 10.6045 3.68004
4 1 1.64812 3.87439 4.63124
5 1 13.7561 9.95573 10.22
6 1 9.93418 0.162778 -0.0999134
7 1 13.3376 9.62023 6.07119
8 1 3.50527 13.4231 7.71761
9 1 3.26463 6.39041 2.84636
10 1 5.41581 7.9932 2.40625
11 1 13.8308 6.51392 1.83281
12 1 0.519849 10.1469 13.7012
13 1 14.8745 5.3492 4.80517
14 1 9.85605 5.99419 7.81617
15 1 12.217 7.01382 3.95696
16 1 9.98608 2.90181 6.80569
17 1 4.63883 3.93995 11.2526
18 1 7.36896 10.5065 11.2057
19 1 8.30629 1.99273 14.3926
20 1 5.80642 13.7403 0.482325
21 1 -0.2063 13.177 9.8486
22 1 12.5041 1.96405 6.02426
23 1 10.6638 6.98276 13.9765
24 1 1.95642 7.76117 6.16798
25 1 10.5201 9.26646 5.69007
26 1 15.1959 8.16559 4.61569
27 1 1.7461 11.3394 4.43186
28 1 6.00224 0.350497 10.6714
29 1 12.2163 8.0325 0.280335
30 1 2.16521 6.62169 12.3232
31 1 3.55893 5.63939 5.35481
32 1 7.73584 11.9461 7.8415
33 1 2.87196 3.68183 2.12492
34 1 2.93134 13.3745 0.169271
35 1 -0.139083 5.43715 7.55999
36 1 10.7679 14.6692 7.41385
37 1 1.45648 14.5057 2.55327
38 1 5.99938 0.426682 13.3713
39 1 0.480575 9.98192 2.56724
40 1 12.3315 13.0437 12.6487
41 1 1.04999 12.1136 8.02494
42 1 13.7956 14.1542 0.220839
43 1 -0.0929872 15.0404 4.65802
44 1 8.60802 12.7455 11.7843
45 1 12.4428 6.2768 6.70887
46 1 9.77946 10.3005 8.24261
47 1 10.5411 10.9967 12.8889
48 1 8.91788 12.3013 5.28034
49 1 3.82209 1.62216 14.334
50 1 6.48811 13.1578 13.5054
51 1 3.99941 5.98003 9.07063
52 1 11.2775 -0.00859223 12.9383
53 1 7.58201 14.1145 3.43634
54 1 4.55706 2.2037 3.40166
55 1 12.2134 11.2115 8.52371
56 1 8.7724 10.3282 15.1716
57 1 1.68785 1.77116 8.44857
58 1 8.52833 5.54229 11.6076
59 1 1.2905 9.13355 8.43563
60 1 10.5997 10.5195 3.27814
61 1 11.6148 4.3001 14.8
62 1 10.6568 6.88766 10.5429
63 1 4.92484 10.0755 9.90887
64 1 8.01114 8.01889 1.32069
65 1 14.2623 7.75733 8.52264
66 1 4.99083 14.7503 3.66532
67 1 5.67693 1.89182 6.76831
68 1 1.42526 0.374857 10.5303
69 1 11.4022 12.3752 1.58763
70 1 8.13393 4.22046 9.34819
71 1 15.1859 12.4962 5.66338
72 1 5.06511 11.2452 7.64022
73 1 0.810786 7.44029 14.3794
74 1 1.01938 4.29714 11.8267
75 1 -0.152797 0.73018 12.7901
76 1 12.5404 12.3985 6.07859
77 1 6.42677 1.03281 1.32238
78 1 5.54314 8.09832 7.17797
79 1 4.52972 3.98671 -0.141703
80 1 14.6176 1.71054 0.236653
81 1 8.66933 1.23643 2.77371
82 1 10.1146 2.61745 10.3105
83 1 1.73331 4.36816 8.7866
84 1 12.665 15.1585 4.13916
85 1 10.1835 4.74436 4.99227
86 1 8.45106 6.21857 15.0119
87 1 2.73407 2.29747 12.1637
88 1 9.92949 14.6268 10.7329
89 1 -0.222439 11.3317 0.545248
90 1 9.68057 3.58364 12.7085
91 1 8.01748 3.79997 3.60393
92 1 3.25919 12.5543 2.70918
93 1 13.4027 3.57231 8.15489
94 1 0.800841 7.48412 1.79296
95 1 13.3742 9.83914 12.7623
96 1 6.10221 2.72671 9.2438
97 1 5.70083 3.86969 5.09421
98 1 13.0175 1.91827 12.7392
99 1 8.95376 7.06532 5.41019
100 1 3.03521 8.14229 10.2292
101 1 4.60277 12.0648 12.0061
102 1 0.522993 12.6333 12.2875
103 1 6.75973 8.42888 4.69766
104 1 9.8378 9.47051 10.8149
105 1 7.90795 14.5626 8.98298
106 1 0.619488 14.3178 14.4096
107 1 7.39433 3.87969 0.669308
108 1 13.3953 6.72897 11.0077
109 1 6.70702 9.50338 13.6056
110 1 6.86738 6.88388 13.16
111 1 3.53893 9.95261 5.73641
112 1 1.61298 1.26096 5.71564
113 1 9.01161 13.191 0.926093
114 1 3.88593 0.0158886 6.07631
115 1 10.4408 8.13949 2.30396
116 1 3.85856 14.2487 10.3477
117 1 5.59803 11.6318 2.20631
118 1 3.1621 11.0889 14.1082
119 1 12.434 2.94165 1.59073
120 1 12.5777 13.5155 9.97893
121 1 13.7989 6.37349 13.7499
122 1 11.3448 0.735823 2.11568
123 1 1.83841 1.2878 1.05066
124 1 8.10297 0.787559 6.64562
125 1 12.7275 10.613 -0.191262
126 1 14.0158 3.82832 10.7134
127 1 12.6204 3.98757 4.08765
128 1 4.90746 9.6371 0.296775
129 2 4.59336 4.92695 12.5965
130 2 4.54859 5.2392 13.9811
131 2 14.3988 4.86194 14.116
132 2 15.2155 3.86972 13.355
133 2 7.51742 9.70201 4.2541
134 2 8.50481 10.3686 3.31249
135 2 0.855225 4.37208 4.4424
136 2 2.06979 3.7229 3.68344
137 2 14.4508 10.5477 10.204
138 2 13.4049 9.93737 11.3427
139 2 10.5222 0.387583 0.702999
140 2 9.11809 0.827581 -0.160533
141 2 13.6082 9.51817 7.07306
142 2 13.0899 10.572 6.01294
143 2 3.80337 13.9438 8.56137
144 2 3.66827 13.9866 6.95132
145 2 3.07662 5.67444 2.14209
146 2 3.52185 6.03569 3.68535
147 2 5.09568 8.68679 1.66196
148 2 4.67253 7.27983 2.31528
149 2 13.2512 6.56942 2.55133
150 2 14.7599 6.91116 2.03544
151 2 0.664855 9.179 13.87
152 2 0.391788 10.3539 14.6305
153 2 13.9286 4.8959 4.49933
154 2 14.9122 6.26919 4.64051
155 2 10.668 6.11192 7.28442
156 2 9.45582 6.47515 7.24878
157 2 12.3674 7.22551 4.91612
158 2 11.3554 7.59131 3.6367
159 2 10.0609 3.04248 7.83543
160 2 9.98327 3.70948 6.36906
161 2 4.01341 3.16835 11.3679
162 2 5.18071 3.66754 10.6101
163 2 8.13943 9.96711 11.3923
164 2 7.62895 11.6027 11.1748
165 2 8.26842 2.76241 15.1952
166 2 7.43819 1.84305 13.9808
167 2 6.25506 13.703 14.9754
168 2 4.89577 14.0311 0.274357
169 2 14.3241 13.3547 9.89768
170 2 0.116718 12.9659 10.8312
171 2 11.5117 2.17758 6.03366
172 2 12.6689 1.12978 5.44809
173 2 11.0799 7.23165 13.0503
174 2 11.1991 7.45649 14.6338
175 2 1.1016 7.94627 5.55386
176 2 1.68384 8.1165 7.13044
177 2 11.483 8.99866 5.89604
178 2 10.444 9.97489 4.87554
179 2 14.4116 8.69631 4.95375
180 2 -0.113878 8.7914 3.80877
181 2 1.03497 11.7977 5.00761
182 2 2.62479 10.8429 4.99984
183 2 6.09875 1.11742 10.0917
184 2 5.1143 15.1912 10.4337
185 2 12.5614 8.96269 0.193129
186 2 13.2332 7.38531 0.707733
187 2 2.53028 7.13303 11.6408
188 2 2.92916 6.22027 12.7577
189 2 3.07511 6.37415 5.87941
190 2 3.07795 4.94736 5.25274
191 2 7.43164 13.0241 8.14482
192 2 8.26045 11.9588 6.95513
193 2 2.35127 3.02637 1.62815
194 2 3.46917 3.10328 2.65791
195 2 2.64617 12.4039 15.1082
196 2 2.84991 13.139 1.12767
197 2 15.2246 5.59807 6.33929
198 2 15.1001 6.35728 7.92761
199 2 11.5665 -0.173937 7.64666
200 2 11.3291 13.8284 7.17183
201 2 2.13876 14.0256 2.91514
202 2 1.76539 -0.182522 1.93537
203 2 6.24763 14.7366 13.4437
204 2 5.99423 0.642049 12.3931
205 2 1.08991 9.17725 2.3641
206 2 0.801051 10.5163 3.29807
207 2 11.7332 13.898 12.5387
208 2 11.617 12.326 12.6143
209 2 2.00521 12.5144 7.96616
210 2 0.337629 12.6455 8.62076
211 2 13.7876 15.1361 0.335226
212 2 13.2718 14.0505 14.8456
213 2 14.5799 -0.00580355 4.49321
214 2 0.345891 14.9416 3.81319
215 2 8.97208 13.6504 11.2957
216 2 9.30253 12.2893 12.3976
217 2 13.1369 6.86675 7.08325
218 2 12.7897 5.45927 6.68003
219 2 8.78319 10.5952 8.22963
220 2 9.93512 9.72417 7.47137
221 2 10.5213 10.2323 12.2076
222 2 10.1188 10.7592 13.6581
223 2 9.79687 12.009 5.13612
224 2 8.24897 11.4033 4.97886
225 2 4.52532 1.18309 14.1226
226 2 3.21633 1.87174 13.6197
227 2 7.36856 12.9317 13.0153
228 2 5.84407 12.4733 12.9986
229 2 3.21979 5.32643 8.94966
230 2 4.52808 5.34482 9.80801
231 2 10.8124 0.384133 13.9083
232 2 11.9409 0.776949 12.8129
233 2 8.08746 15.0717 3.37711
234 2 8.10125 13.7993 4.17279
235 2 5.02607 1.5724 2.79355
236 2 5.20991 2.57102 3.97356
237 2 12.5292 10.8555 9.38723
238 2 11.2486 10.8466 8.32152
239 2 8.33737 9.50303 0.398507
240 2 8.63607 11.2574 0.211383
241 2 1.54614 1.43557 7.5032
242 2 1.71296 2.76916 8.444
243 2 8.83784 4.87491 12.0858
244 2 7.90569 6.2136 12.221
245 2 1.8376 8.79505 9.1369
246 2 1.31609 10.058 8.28675
247 2 11.0399 11.3877 2.92903
248 2 10.4086 9.65581 2.75292
249 2 11.1522 5.27498 14.953
250 2 11.0733 3.96218 14.0029
251 2 10.8453 6.42501 9.6134
252 2 9.69724 6.40704 10.7115
253 2 5.80337 10.148 10.2297
254 2 4.88878 10.7085 9.14372
255 2 8.07629 7.25846 0.683025
256 2 7.14446 8.12732 1.83954
257 2 14.0087 7.52735 9.51041
258 2 -0.208123 8.20348 8.80397
259 2 6.00331 14.4733 3.80118
260 2 4.65297 13.797 3.40613
261 2 6.50852 1.42313 6.60809
262 2 4.84172 1.20275 6.50794
263 2 1.69066 0.651139 9.55839
264 2 0.86584 14.9791 10.2575
265 2 10.6379 12.6668 1.12828
266 2 12.044 13.0601 1.58577
267 2 8.38955 4.86529 10.1304
268 2 8.56278 4.86921 8.65075
269 2 -0.127079 13.4765 5.38908
270 2 0.318654 12.4323 6.39763
271 2 5.96512 11.5532 7.62009
272 2 4.71821 12.1324 7.57095
273 2 -0.0354683 7.12243 14.4486
274 2 1.22715 6.91102 13.6169
275 2 1.3305 5.13676 11.97
276 2 0.321356 4.31375 11.1138
277 2 0.481327 0.630185 11.9778
278 2 0.167859 0.478722 13.7161
279 2 13.3199 12.3963 5.79815
280 2 12.4038 11.995 6.96061
281 2 6.03606 1.34158 0.510564
282 2 6.25866 0.139115 1.34931
283 2 5.31423 7.31257 7.60457
284 2 5.2649 8.74047 7.77022
285 2 4.48758 3.10481 14.906
286 2 4.06477 4.10731 0.799965
287 2 14.0381 2.08591 0.974824
288 2 14.7899 2.32017 14.913
289 2 7.88306 1.396 2.15135
290 2 8.63746 2.01419 3.2776
291 2 9.58858 3.18525 9.70751
292 2 10.5154 1.70013 10.044
293 2 1.32875 4.30442 9.73612
294 2 1.02907 5.00311 8.2399
295 2 12.0851 -0.0120082 3.22202
296 2 12.3437 14.4038 4.681
297 2 10.0602 5.83973 5.05276
298 2 9.44032 4.36874 4.36522
299 2 9.24473 6.53225 14.7052
300 2 7.83091 6.46766 14.1929
301 2 2.23942 3.1355 12.0027
302 2 2.3711 1.63779 11.587
303 2 10.7626 14.5463 10.0145
304 2 10.4055 14.9914 11.4415
305 2 15.2206 12.2646 0.836394
306 2 0.244686 10.944 1.2925
307 2 9.1671 2.93857 13.4337
308 2 10.1188 3.01712 11.988
309 2 7.16258 3.95408 4.15833
310 2 7.915 4.04528 2.68301
311 2 2.54811 12.1142 3.2872
312 2 4.08038 11.9781 2.5748
313 2 13.3358 2.816 7.56747
314 2 14.1944 4.00907 7.86012
315 2 1.06047 7.45105 0.946023
316 2 1.64373 7.07748 2.21753
317 2 14.2671 9.84851 13.0847
318 2 12.8625 10.3262 13.4701
319 2 5.83313 2.52497 8.27479
320 2 6.86478 3.32887 9.17753
321 2 4.86231 4.49045 5.22097
322 2 5.7111 3.22636 5.8076
323 2 12.9946 2.50418 13.424
324 2 13.8713 1.51847 12.8401
325 2 8.03566 7.31819 4.92308
326 2 9.4018 7.88462 5.37882
327 2 3.56293 7.34047 9.80784
328 2 3.8545 8.88709 10.162
329 2 4.64739 11.3077 11.294
330 2 4.16664 11.6715 12.9018
331 2 0.201706 11.8789 12.7563
332 2 0.414287 13.2696 12.843
333 2 6.27384 8.51723 5.47648
334 2 6.18196 8.20796 3.98805
335 2 9.73207 9.81532 10.0183
336 2 10.2894 8.60704 10.7055
337 2 8.69991 14.8762 9.6619
338 2 7.13445 14.7502 9.55964
339 2 5.84115e-05 14.6401 -0.190769
340 2 1.52231 14.0683 14.7174
341 2 6.40402 4.20922 0.698992
342 2 7.65201 4.71718 0.495614
343 2 13.538 5.86008 10.7295
344 2 12.3432 6.82852 10.8984
345 2 7.07817 10.0779 12.7436
346 2 7.57805 9.70107 14.2707
347 2 5.8952 6.42227 13.2173
348 2 6.94039 7.88791 13.1663
349 2 3.72292 10.3741 6.50619
350 2 2.79676 9.23474 5.77377
351 2 0.940166 0.523161 5.20907
352 2 1.36374 2.14831 5.26715
353 2 8.67378 13.2598 1.75997
354 2 9.29489 14.1655 0.700455
355 2 2.96824 0.483531 5.98897
356 2 4.20455 15.1052 5.22612
357 2 11.1436 8.10428 1.54788
358 2 9.57451 7.80151 1.88892
359 2 3.13851 14.6964 10.4381
360 2 4.04756 13.5464 11.0065
361 2 5.84281 12.5145 1.71831
362 2 6.45191 11.3691 2.72927
363 2 2.40485 10.6165 13.6531
364 2 3.69159 10.3509 14.749
365 2 11.9462 3.68126 0.829514
366 2 12.5305 3.32177 2.34729
367 2 12.5509 12.7175 9.259
368 2 12.4074 13.3316 10.9469
369 2 13.692 6.45842 12.699
370 2 12.8871 6.39683 14.2419
371 2 11.7281 1.79967 2.05821
372 2 10.454 1.0304 2.46502
373 2 0.9642 1.54657 0.678604
374 2 2.46845 1.0854 0.335331
375 2 8.21547 0.230798 7.34036
376 2 8.61972 1.58437 6.60125
377 2 12.2125 11.2098 0.42983
378 2 13.7634 10.8251 0.0489538
379 2 13.812 3.72103 9.67458
380 2 13.4467 3.17746 11.0703
381 2 12.5436 3.36558 4.79605
382 2 11.5432 4.37946 4.19022
383 2 5.36775 10.4663 0.54379
384 2 5.2443 9.29386 14.8815
ITEM: TIMESTEP
400
ITEM: NUMBER OF ATOMS
384
ITEM: BOX BOUNDS pp pp pp
-1.7792508045011868e-01 1.5177925080450148e+01
-7.2874872329593998e-02 1.5072874872329617e+01
-1.0143935956222627e-01 1.5101439359562306e+01
ITEM: ATOMS id type x y z
1 1 4.46467 5.54125 12.6866
2 1 14.8881 3.54782 14.0676
3 1 7.24733 10.4601 3.5775
4 1 1.73354 3.45339 4.37426
5 1 13.7394 9.66505 10.0768
6 1 9.42999 -0.0173842 14.9494
7 1 13.3639 9.32333 6.44825
8 1 3.48845 13.0287 7.90547
9 1 3.47413 6.0043 2.43396
10 1 5.55332 7.51511 2.04948
11 1 14.05 6.81261 2.08151
12 1 0.599856 10.0883 13.7279
13 1 -0.0464533 5.30694 4.72302
14 1 9.54483 6.40736 8.15053
15 1 12.2773 6.62351 4.35541
16 1 10.2796 2.88697 6.79807
17 1 4.42417 3.93379 10.674
18 1 7.00232 10.3916 11.0538
19 1 7.9202 2.01552 14.4499
20 1 5.80658 13.3021 0.543184
21 1 -0.0260833 13.196 9.80688
22 1 12.1136 1.96639 5.27094
23 1 10.7795 6.44575 13.4929
24 1 1.94006 7.83588 6.24011
25 1 10.7123 9.02904 5.7642
26 1 15.0518 8.04314 4.75821
27 1 1.68532 11.1431 4.40725
28 1 5.94855 0.587165 10.5415
29 1 12.1045 7.69895 0.271109
30 1 2.11645 6.65712 12.0217
31 1 3.37917 5.5913 5.1842
32 1 7.61119 11.9351 7.80706
33 1 3.29899 3.50276 1.65216
34 1 3.16963 13.0244 0.18958
35 1 -0.171984 4.98432 7.33035
36 1 10.7478 14.5799 7.37015
37 1 1.11265 14.3468 2.02643
38 1 5.95319 0.778317 13.1637
39 1 0.339831 9.66416 2.65452
40 1 12.3123 13.1148 12.7358
41 1 1.2037 11.8123 8.10676
42 1 13.3143 13.6874 -0.0321494
43 1 15.0635 14.8726 4.35094
44 1 8.75705 12.7435 11.8792
45 1 12.0273 5.99597 7.15231
46 1 9.83262 10.2568 8.01298
47 1 10.3901 10.8014 12.6804
48 1 8.56464 12.1633 5.36864
49 1 3.66656 1.63105 14.1585
50 1 6.33885 13.2912 13.24
51 1 4.08104 6.02113 8.50772
52 1 11.2244 0.277292 12.5247
53 1 7.38867 13.7893 3.53742
54 1 4.60334 1.97319 3.47666
55 1 12.0917 11.2929 8.68295
56 1 9.04606 10.1997 -0.0389058
57 1 2.2179 1.5618 8.33111
58 1 8.63716 5.30108 11.6461
59 1 0.931218 9.2293 8.47449
60 1 10.031 10.4004 3.54816
61 1 11.8357 3.9388 14.0866
62 1 10.2764 6.89736 10.5152
63 1 4.70175 9.89268 9.61034
64 1 8.25212 7.87962 1.50415
65 1 14.3134 7.56751 7.97807
66 1 4.80326 14.4646 3.61017
67 1 5.79482 1.67839 6.59523
68 1 1.6217 0.17545 10.3747
69 1 11.4487 12.4944 1.67938
70 1 8.37488 3.95205 9.14514
71 1 -0.111753 12.4971 5.78354
72 1 5.31225 11.0255 7.2453
73 1 0.748436 7.49705 14.2527
74 1 0.52891 4.29322 11.5869
75 1 -0.0241987 1.10667 12.4684
76 1 12.4038 12.402 6.01569
77 1 6.29734 0.799314 1.39435
78 1 5.84428 7.92152 7.40945
79 1 4.83225 4.09009 14.9022
80 1 14.3774 1.17697 0.456563
81 1 8.40785 1.0548 2.86609
82 1 10.1258 2.21407 10.3802
83 1 1.86979 4.20104 8.89034
84 1 12.3646 14.8201 3.88845
85 1 9.84599 4.66864 4.96482
86 1 8.27556 5.76735 14.9389
87 1 2.63736 2.26327 11.6123
88 1 10.211 14.547 10.3359
89 1 14.7701 11.2176 0.740815
90 1 9.75882 3.08581 12.8394
91 1 7.74184 3.45183 3.64182
92 1 3.34931 12.5128 2.88678
93 1 13.0745 3.68892 7.77551
94 1 1.34609 7.6287 1.5958
95 1 13.3055 9.46572 12.7447
96 1 6.12932 2.78423 8.91039
97 1 5.83505 3.95988 5.33335
98 1 12.7671 2.25913 12.367
99 1 8.77192 7.11844 5.80489
100 1 2.84372 8.02505 9.8955
101 1 4.41038 11.7654 11.7674
102 1 1.14108 12.1005 11.7514
103 1 6.38252 8.30481 4.77614
104 1 9.34488 9.39839 10.5735
105 1 7.99807 14.4889 8.67981
106 1 0.93815 14.0421 14.1847
107 1 7.04548 3.93035 1.23302
108 1 12.9287 6.70571 10.5891
109 1 6.92437 9.37811 13.4824
110 1 6.73324 6.77453 12.9356
111 1 3.67873 9.71492 5.29299
112 1 1.47923 1.13562 5.71359
113 1 8.72965 12.8445 1.12463
114 1 3.62402 14.9248 6.1378
115 1 10.7709 8.05231 2.58471
116 1 3.82751 14.0828 10.2471
117 1 5.43707 11.1427 1.85033
118 1 3.15085 10.8966 14.0297
119 1 12.3901 2.84164 1.37371
120 1 12.6276 13.4592 10.1059
121 1 13.8541 6.59281 13.2919
122 1 10.8627 0.680483 2.18728
123 1 1.83188 1.49904 0.918009
124 1 8.27329 0.886482 6.13189
125 1 12.3646 10.2696 0.00208665
126 1 13.4116 4.15258 10.6941
127 1 13.0737 4.16258 3.91474
128 1 4.70448 9.36265 0.0315247
129 2 4.53124 4.92632 11.8985
130 2 4.59302 5.14819 13.6709
131 2 14.4792 4.25271 14.4554
132 2 15.1144 4.07644 13.2892
133 2 7.00531 9.47372 4.02497
134 2 8.04136 10.3499 3.11742
135 2 1.00528 4.17945 4.31982
136 2 2.03005 2.99867 3.66147
137 2 14.6713 9.8452 10.098
138 2 13.6062 9.75819 11.0753
139 2 9.9557 0.286711 0.639395
140 2 8.97883 0.68933 14.7034
141 2 13.7768 8.79683 7.15455
142 2 13.7993 10.137 6.58461
143 2 3.6339 13.6585 8.7423
144 2 3.43139 13.5022 7.04287
145 2 3.03291 5.1917 2.19538
146 2 3.4335 5.71915 3.3798
147 2 5.35945 8.12742 1.30933
148 2 4.82632 6.88524 2.20839
149 2 13.7885 7.41153 2.81894
150 2 -0.17776 6.85714 1.98557
151 2 0.847612 8.94133 13.9141
152 2 0.239221 10.4943 14.466
153 2 14.5662 4.6943 4.59392
154 2 15.1667 6.24339 4.3027
155 2 10.4973 6.12261 7.64473
156 2 8.9952 6.77364 7.40253
157 2 11.949 6.40896 5.1433
158 2 11.5395 7.02768 3.81474
159 2 10.3746 3.27771 7.69843
160 2 10.0488 3.6434 6.23414
161 2 3.93937 3.13069 10.892
162 2 5.21996 3.68307 9.93245
163 2 7.69193 9.85594 10.6467
164 2 7.54359 11.1755 11.2983
165 2 7.5697 2.61506 -0.0595925
166 2 7.06182 1.57999 14.1439
167 2 6.35986 13.2731 14.829
168 2 4.78433 13.261 0.48824
169 2 14.449 13.5148 9.88216
170 2 0.318984 12.7203 10.7159
171 2 11.2362 2.1542 5.91145
172 2 12.1273 1.24321 4.94693
173 2 10.9442 6.38413 12.5719
174 2 11.2534 7.23768 14.116
175 2 1.0434 7.61977 5.8756
176 2 1.68084 8.15974 7.06968
177 2 11.6547 9.17316 5.84595
178 2 10.4363 9.35491 4.90548
179 2 14.28 8.40233 5.29054
180 2 -0.16406 8.63425 4.00997
181 2 1.06225 11.6415 4.9567
182 2 2.43332 10.7457 4.92224
183 2 5.91605 1.34018 10.0112
184 2 4.8878 14.8874 10.4326
185 2 12.1617 8.89776 0.171367
186 2 12.8114 7.47171 0.959093
187 2 2.41473 7.44444 11.4821
188 2 2.92081 6.17671 12.272
189 2 2.75746 6.28636 5.36415
190 2 2.89955 4.85274 5.01505
191 2 7.56719 12.6296 8.26906
192 2 7.89424 12.1876 6.78538
193 2 2.56843 2.94626 1.40995
194 2 3.92796 2.82139 2.0517
195 2 3.17239 12.1569 14.7259
196 2 2.84158 12.6434 1.1956
197 2 0.270414 5.00065 6.4629
198 2 15.1616 6.03828 7.52871
199 2 11.3582 14.8163 8.11618
200 2 11.3975 14.277 6.72752
201 2 2.05001 14.0927 2.26499
202 2 1.43919 0.035681 1.5312
203 2 6.13627 15.0405 13.1643
204 2 6.03002 0.725099 12.2163
205 2 1.21589 9.21309 2.32148
206 2 0.9642 10.1833 3.32641
207 2 11.8519 13.9183 12.8168
208 2 11.6377 12.4037 12.8185
209 2 2.18198 12.3217 7.96044
210 2 0.78373 12.1075 8.93463
211 2 13.6778 14.4532 0.0143455
212 2 12.8007 13.284 14.3735
213 2 13.9064 15.0555 4.29501
214 2 0.0270653 14.7357 3.46622
215 2 9.05542 13.133 11.0691
216 2 9.49767 12.0373 12.0415
217 2 12.4517 6.44678 7.80809
218 2 12.2429 4.96717 7.27633