ITEM: TIMESTEP
0
ITEM: NUMBER OF ATOMS
384
ITEM: BOX BOUNDS pp pp pp
-3.1180958401302572e-01 1.5311809584013066e+01
-3.1180958401302572e-01 1.5311809584013066e+01
-3.1180958401302572e-01 1.5311809584013066e+01
ITEM: ATOMS id type x y z
1 1 4.57679 5.50123 13.6944
2 1 14.8875 3.66367 14.1079
3 1 8.20115 10.8513 3.91518
4 1 1.55859 4.11103 4.68534
5 1 14.0046 11.0534 10.4291
6 1 10.1562 -0.0244194 -0.0179537
7 1 13.1461 9.78511 5.92123
8 1 3.48566 13.6848 7.87681
9 1 3.32305 6.30373 3.20589
10 1 5.30735 8.37688 2.36991
11 1 13.7801 6.32188 1.70807
12 1 0.692367 10.1945 14.1186
13 1 15.0627 5.43363 4.6639
14 1 9.98456 5.97612 7.92121
15 1 12.4056 7.19481 3.96576
16 1 9.83562 2.64919 6.79506
17 1 4.60459 4.17249 11.4106
18 1 7.55062 10.3381 11.1669
19 1 8.27543 1.89543 14.4455
20 1 5.83253 14.0038 0.549654
21 1 -0.277952 13.5963 10.2649
22 1 12.6457 2.09652 6.28487
23 1 10.7129 7.40871 14.2399
24 1 2.2119 7.88472 6.40809
25 1 10.4542 9.69036 5.97773
26 1 -0.282536 8.22967 4.81222
27 1 1.6652 11.2607 4.20606
28 1 6.17365 -0.094545 10.725
29 1 12.1932 8.4542 0.381712
30 1 2.29814 6.67565 12.652
31 1 3.74006 5.65533 5.77839
32 1 7.64075 12.3667 7.75101
33 1 2.57949 3.81144 2.08856
34 1 3.31976 13.3432 0.0677147
35 1 -0.0967938 5.37115 7.46928
36 1 11.1426 14.5448 7.59235
37 1 1.26174 14.8074 2.57217
38 1 6.41618 0.335516 13.3898
39 1 0.207637 9.92258 2.18818
40 1 12.6731 13.1901 12.8323
41 1 1.29363 11.9761 7.9846
42 1 13.2286 14.8362 0.439531
43 1 -0.123887 15.1905 5.01064
44 1 8.80795 12.7708 12.0788
45 1 12.4172 6.75949 6.79319
46 1 9.49869 10.6014 8.40823
47 1 10.544 10.9934 13.3575
48 1 8.99001 12.8372 5.44675
49 1 4.04829 1.51716 14.6149
50 1 6.69928 13.1999 13.7041
51 1 4.43379 6.10378 9.26553
52 1 11.4216 -0.0969869 13.0672
53 1 8.10878 14.4288 3.40524
54 1 4.3962 2.37166 3.28729
55 1 12.1316 11.4523 8.45349
56 1 8.7458 10.8517 -0.213292
57 1 1.53862 1.7361 8.48855
58 1 8.69585 5.89847 11.616
59 1 1.22107 9.19196 8.49846
60 1 10.635 10.5731 3.14594
61 1 11.4957 4.51089 15.2148
62 1 10.9209 6.7156 10.446
63 1 4.94638 10.4223 10.3546
64 1 7.94749 8.55464 1.09697
65 1 14.5919 7.80968 8.4877
66 1 5.26248 14.7619 3.62401
67 1 5.62202 2.26942 6.97039
68 1 1.29568 -0.0251437 10.348
69 1 11.6689 12.7598 1.5126
70 1 8.10674 4.34492 9.29769
71 1 15.2574 12.5827 5.71394
72 1 5.13758 11.4238 7.95676
73 1 0.807368 7.59384 14.5622
74 1 1.07308 4.35508 11.6836
75 1 -0.103901 0.899318 12.6958
76 1 12.4336 12.7126 5.99741
77 1 6.5124 0.898083 1.44852
78 1 5.22926 7.74021 7.34722
79 1 4.69818 3.85809 0.25821
80 1 14.6318 1.53081 0.260033
81 1 8.7843 1.26425 2.88569
82 1 10.1715 2.86217 10.2074
83 1 1.97586 4.56417 8.94346
84 1 12.6683 15.2799 4.82665
85 1 10.1623 4.44247 4.67024
86 1 8.26116 6.29332 15.2182
87 1 2.75694 2.33071 12.3211
88 1 10.1168 15.0402 10.6766
89 1 0.0214213 11.8389 0.424274
90 1 9.92368 3.73613 12.9889
91 1 7.93039 3.8304 3.09944
92 1 3.45334 12.7245 2.72154
93 1 13.7442 3.34545 8.32257
94 1 1.06378 7.50528 1.70711
95 1 13.5608 9.51663 12.896
96 1 6.16563 2.34739 9.6158
97 1 6.00658 4.12469 4.96415
98 1 13.0409 2.11594 12.6389
99 1 9.44842 7.22402 5.61094
100 1 3.08802 8.31472 10.412
101 1 4.27645 12.564 12.0172
102 1 0.247817 12.7339 12.6695
103 1 6.92237 8.32243 4.80264
104 1 10.2096 9.4039 11.0142
105 1 8.10819 14.6608 9.11245
106 1 0.724807 14.5893 14.8093
107 1 7.38606 3.87893 0.612739
108 1 13.59 6.17467 11.3541
109 1 6.57455 9.82429 14.0409
110 1 6.72525 7.05567 13.1783
111 1 3.66994 10.3273 5.96103
112 1 1.66543 1.60839 5.77048
113 1 9.05834 13.0173 1.11863
114 1 4.11235 0.213829 6.02437
115 1 10.3679 8.11545 2.36753
116 1 3.8208 14.5044 10.4834
117 1 6.27696 11.8524 2.07137
118 1 3.1417 11.1769 14.1451
119 1 12.971 3.21476 1.56998
120 1 12.4061 13.5738 10.1924
121 1 14.0948 6.56232 13.8874
122 1 11.4172 0.689063 2.37021
123 1 1.65778 1.52802 1.12949
124 1 7.74882 0.714644 6.86752
125 1 13.0368 10.8806 0.0461404
126 1 14.1536 3.59273 10.8941
127 1 12.9937 3.74289 4.44237
128 1 4.93288 10.2326 0.481908
129 2 4.52916 4.87676 12.9369
130 2 4.69703 5.06241 14.547
131 2 14.6886 4.58995 14.3163
132 2 0.0945933 3.63697 13.6264
133 2 7.74221 10.0755 4.24889
134 2 8.99342 10.7228 3.34745
135 2 0.788771 4.72927 4.53377
136 2 1.81069 3.95163 3.77685
137 2 14.4008 11.9252 10.4575
138 2 13.9069 10.7269 11.3647
139 2 10.6725 0.201823 0.765773
140 2 9.47367 0.652849 -0.0632908
141 2 13.5922 9.97565 6.76473
142 2 13.2152 10.5455 5.32572
143 2 3.67781 14.0964 8.7488
144 2 3.53939 14.3835 7.27865
145 2 3.09567 5.45978 2.78243
146 2 3.60518 6.19337 4.09913
147 2 5.08995 9.05489 1.76222
148 2 4.54185 7.79795 2.5309
149 2 13.4381 6.67871 2.59019
150 2 14.7355 6.25337 1.79471
151 2 0.77524 9.18308 14.2443
152 2 0.388115 10.6288 14.9234
153 2 14.1894 4.91997 4.56536
154 2 14.9228 6.4107 4.60147
155 2 10.8762 5.93786 7.61697
156 2 9.58879 6.53361 7.20672
157 2 12.1014 7.06547 4.8105
158 2 11.5829 7.27566 3.48345
159 2 9.70669 3.06202 7.62541
160 2 9.96186 3.35305 6.0781
161 2 3.89127 3.51534 11.556
162 2 5.31618 3.63484 11.0911
163 2 8.36256 9.80951 10.99
164 2 7.91946 11.2623 11.3115
165 2 7.80256 2.56448 14.9346
166 2 7.58248 1.21916 14.1315
167 2 6.10462 13.5421 -0.242407
168 2 4.85977 13.825 0.528199
169 2 14.4101 13.8153 10.1623
170 2 -0.0704958 13.4422 11.1966
171 2 11.7088 2.1063 6.54679
172 2 12.6961 1.18401 5.89058
173 2 10.9921 7.5299 13.3514
174 2 11.2636 8.01166 14.7268
175 2 1.57728 7.89927 5.7134
176 2 1.87051 8.36741 7.16573
177 2 11.4302 9.71213 6.20698
178 2 10.3486 10.1292 5.1128
179 2 14.4149 8.445 5.04536
180 2 0.00164071 8.8165 4.03796
181 2 1.02838 11.8189 4.67407
182 2 2.36173 10.8675 4.79517
183 2 6.32838 0.734699 10.265
184 2 5.21972 -0.301306 10.6492
185 2 12.568 9.37229 0.310345
186 2 12.8634 7.95827 0.824663
187 2 2.56428 7.41349 12.0109
188 2 3.14156 6.4193 13.0935
189 2 3.16723 6.41343 5.9805
190 2 3.10221 4.98312 5.63197
191 2 7.73547 13.1577 8.33842
192 2 8.06104 12.6116 6.87934
193 2 1.75422 3.38105 1.7562
194 2 3.25148 3.1727 2.47226
195 2 3.15037 12.6412 14.9757
196 2 3.16776 12.9566 0.983888
197 2 0.0720948 5.37286 6.52711
198 2 -0.245356 6.34024 7.61737
199 2 11.6512 14.8569 8.35832
200 2 11.802 13.9131 7.23812
201 2 2.07792 14.3411 2.56175
202 2 1.50629 0.044002 2.08403
203 2 6.3968 14.9261 13.4491
204 2 6.20534 0.425411 12.4267
205 2 0.660795 9.1318 1.85703
206 2 0.694078 10.391 2.87312
207 2 12.3708 14.0972 13.0916
208 2 12.1841 12.5232 13.366
209 2 2.09163 12.5603 7.87369
210 2 0.901668 12.2269 8.80367
211 2 13.6981 0.109016 0.335681
212 2 13.4443 14.3386 15.279
213 2 14.5376 15.2076 4.93591
214 2 0.228484 14.9795 4.13145
215 2 9.24837 13.4527 11.622
216 2 9.52013 12.2417 12.5392
217 2 12.875 7.30125 7.44426
218 2 13.1287 6.09272 6.70831
219 2 8.70364 11.2231 8.31889
220 2 9.67729 10.2938 7.51515
221 2 10.4955 10.2933 12.7118
222 2 10.0325 10.7711 14.1408
223 2 9.87115 13.0955 5.5737
224 2 8.95145 12.0108 4.93614
225 2 4.74251 0.928236 14.2575
226 2 3.48888 1.81195 13.8977
227 2 7.56401 13.1017 13.1985
228 2 6.02622 12.6782 13.2435
229 2 3.65548 5.64787 8.88705
230 2 4.53028 5.65688 10.1121
231 2 10.7483 -0.0654962 13.7661
232 2 11.7812 0.808853 13.0779
233 2 8.36482 -0.291862 3.46612
234 2 8.34757 14.0066 4.25098
235 2 5.1094 1.81781 2.95108
236 2 4.6411 2.96006 4.03817
237 2 12.5339 11.0417 9.22128
238 2 11.1841 11.2095 8.49369
239 2 8.60742 10.312 0.576946
240 2 8.69537 11.7883 0.0583599
241 2 1.42282 1.68337 7.50469
242 2 1.60998 2.65673 8.73322
243 2 8.87953 5.11923 12.1645
244 2 8.03029 6.40716 12.1505
245 2 1.95332 8.95172 9.16853
246 2 1.28006 10.1574 8.3047
247 2 11.2632 11.2403 2.79611
248 2 10.7957 9.70539 2.72449
249 2 11.5653 5.40273 -0.288322
250 2 11.1896 4.32648 14.2564
251 2 10.4204 6.65681 9.62663
252 2 10.2607 6.46258 11.0571
253 2 5.87632 10.1769 10.5904
254 2 4.94364 10.8143 9.46912
255 2 7.91802 7.6928 0.604333
256 2 7.17835 8.74025 1.63464
257 2 14.2008 7.92642 9.35992
258 2 -0.267797 8.44072 8.55252
259 2 6.16366 14.3915 3.8125
260 2 4.75946 14.0077 3.26281
261 2 6.35085 1.60272 6.90857
262 2 4.84301 1.75402 6.76165
263 2 1.34137 0.662419 9.62968
264 2 0.817817 14.7755 10.0578
265 2 10.8342 13.0339 1.10914
266 2 12.2496 13.5788 1.43103
267 2 7.99168 4.93257 10.0429
268 2 8.59208 4.87508 8.55834
269 2 -0.0863874 13.5026 5.64494
270 2 0.00602987 12.1735 6.56287
271 2 6.0476 11.6847 7.84187
272 2 4.65027 12.2574 7.8746
273 2 -0.10786 7.21382 14.4417
274 2 1.40859 7.20909 13.8607
275 2 1.10879 5.19843 12.1297
276 2 0.142322 4.18446 11.4107
277 2 0.192301 0.569522 11.8253
278 2 0.262058 0.216297 13.3227
279 2 13.325 12.966 5.76917
280 2 12.474 12.1815 6.79075
281 2 6.96454 1.33987 0.72514
282 2 6.22808 -0.0168944 1.14781
283 2 5.28424 6.95392 7.95734
284 2 5.69738 8.44349 7.79401
285 2 4.59695 2.96295 -0.156096
286 2 4.05776 3.8329 1.0606
287 2 14.2623 2.20361 0.861912
288 2 14.7961 2.02476 15.1013
289 2 7.90736 0.984376 2.41964
290 2 8.42535 2.08554 3.23522
291 2 9.33834 3.30929 9.83257
292 2 10.1754 1.88055 10.1119
293 2 1.75381 4.52695 9.90946
294 2 1.11552 4.78978 8.54253
295 2 12.2645 0.0873025 4.07993
296 2 12.0334 14.6435 5.15054
297 2 9.97133 5.30379 5.02216
298 2 9.51596 4.30903 3.95105
299 2 9.11176 6.41377 14.7882
300 2 7.57568 6.54 14.599
301 2 2.07189 2.92609 11.9449
302 2 2.69894 1.52435 11.845
303 2 10.8501 14.3815 10.4642
304 2 10.5118 -0.206863 11.478
305 2 0.274248 12.7719 0.61942
306 2 0.108425 11.2293 1.22179
307 2 9.70727 2.84376 13.3266
308 2 10.3129 3.49932 12.1129
309 2 7.16744 3.93944 3.6373
310 2 7.68964 3.77425 2.12389
311 2 2.7812 12.2345 3.34142
312 2 4.17512 12.108 2.65722
313 2 13.4252 2.63657 7.76521
314 2 14.4885 3.85196 7.85505
315 2 1.16553 7.50623 0.684607
316 2 1.80702 6.9489 2.01705
317 2 14.4305 9.58843 13.243
318 2 13.0187 10.0336 13.4694
319 2 5.70123 2.57075 8.68482
320 2 6.80813 3.05178 9.52933
321 2 5.35787 4.80808 5.12533
322 2 5.96938 3.53575 5.71789
323 2 13.0854 2.74416 13.3668
324 2 13.871 1.59988 12.7008
325 2 8.54415 7.16809 5.28465
326 2 9.76316 8.11779 5.62097
327 2 3.5805 7.58031 10.0651
328 2 3.76188 9.05652 10.3377
329 2 4.55808 11.8882 11.3243
330 2 3.56374 12.075 12.5347
331 2 0.334551 11.7965 12.6005
332 2 0.24849 12.8839 13.5924
333 2 6.35726 8.22802 5.65351
334 2 6.38531 8.12785 4.02112
335 2 10.214 9.5859 10.0692
336 2 10.6644 8.57403 11.1276
337 2 8.95214 14.8857 9.64428
338 2 7.3584 14.7538 9.70982
339 2 0.591563 15.0693 0.0182509
340 2 1.70203 14.3696 14.7724
341 2 6.4741 3.89198 0.306924
342 2 7.8908 4.74294 0.474307
343 2 13.7745 5.25403 11.174
344 2 12.6407 6.3597 11.1641
345 2 6.61181 10.3071 13.1711
346 2 7.38294 10.2018 14.4287
347 2 5.92965 6.53312 13.3142
348 2 6.65131 8.00804 13.4902
349 2 4.1508 10.9057 6.58172
350 2 3.72612 9.43762 6.27968
351 2 0.960879 1.05271 5.33877
352 2 1.48012 2.49213 5.40543
353 2 8.71011 13.4532 1.93204
354 2 8.99593 13.78 0.520382
355 2 3.28533 0.709593 5.89467
356 2 4.52263 -0.105961 5.1872
357 2 10.8957 8.12501 1.5533
358 2 9.392 8.09909 2.00114
359 2 2.85608 14.8006 10.6062
360 2 3.90293 13.7417 11.0449
361 2 6.48734 12.6937 1.54518
362 2 7.04029 11.6822 2.67807
363 2 2.24681 10.7375 14.3261
364 2 3.668 10.6767 14.8241
365 2 12.3482 3.69431 0.972113
366 2 13.2921 3.83378 2.19605
367 2 12.5073 12.8061 9.60602
368 2 12.5354 13.311 11.1419
369 2 13.9506 6.55755 12.8999
370 2 13.4462 7.1125 14.3857
371 2 11.8334 1.45816 2.05064
372 2 10.4376 0.894116 2.52875
373 2 0.844146 1.54638 0.605455
374 2 2.39804 1.38307 0.478242
375 2 7.77884 0.12269 7.66547
376 2 8.60235 1.23456 6.91956
377 2 12.4122 11.5105 0.551261
378 2 13.9301 11.2794 0.187093
379 2 13.8259 3.47873 9.96028
380 2 13.5184 3.1733 11.5056
381 2 12.9666 3.11167 5.2382
382 2 12.0906 4.05916 4.29522
383 2 5.48443 10.7696 1.07083
384 2 5.47524 10.05 -0.286949
ITEM: TIMESTEP
200
ITEM: NUMBER OF ATOMS
384
ITEM: BOX BOUNDS pp pp pp
-2.1868351273538700e-01 1.5218683512735430e+01
-2.1868351273538700e-01 1.5218683512735430e+01
-2.1868351273538700e-01 1.5218683512735430e+01
ITEM: ATOMS id type x y z
1 1 4.52857 5.59531 13.2047
2 1 14.4955 3.91281 13.9383
3 1 7.59219 10.6494 3.77014
4 1 1.70186 3.79115 4.58796
5 1 13.6617 10.1708 10.3094
6 1 9.98097 0.256356 -0.0147243
7 1 13.3468 9.67714 6.07458
8 1 3.35048 13.5944 7.60665
9 1 3.14308 6.43785 2.91763
10 1 5.49043 7.89743 2.55546
11 1 13.805 6.57733 1.83286
12 1 0.569882 10.0804 13.8259
13 1 14.952 5.38973 4.85619
14 1 9.87318 5.96194 7.84155
15 1 12.2746 7.00596 4.0081
16 1 9.91473 2.7823 6.75414
17 1 4.71475 3.97341 11.3109
18 1 7.40171 10.4336 11.3123
19 1 8.33473 1.92493 14.3545
20 1 5.83501 13.9041 0.559145
21 1 -0.212556 13.299 10.0354
22 1 12.5141 1.86685 6.24622
23 1 10.5789 7.10089 14.1369
24 1 1.94154 7.83725 6.29525
25 1 10.4536 9.17811 5.78441
26 1 15.1708 8.19652 4.68207
27 1 1.77874 11.4723 4.41717
28 1 5.90277 0.23738 10.6369
29 1 12.2265 8.0646 0.304468
30 1 2.25677 6.5827 12.3327
31 1 3.52 5.78862 5.31588
32 1 7.70559 11.8674 7.85079
33 1 3.14044 3.60129 2.17741
34 1 3.04751 13.2972 0.186241
35 1 -0.0643788 5.30076 7.60928
36 1 10.6715 14.6118 7.33128
37 1 1.30695 14.4564 2.26085
38 1 6.06276 0.433306 13.2936
39 1 0.417395 9.92257 2.70633
40 1 12.2233 13.048 12.5704
41 1 0.977553 12.2647 8.03056
42 1 13.5366 14.2425 0.184439
43 1 -0.070949 14.9873 4.54185
44 1 8.54995 12.7717 11.7905
45 1 12.4547 6.28815 6.79375
46 1 9.78398 10.2723 8.23966
47 1 10.4148 11.0484 12.8101
48 1 8.88159 12.3691 5.35394
49 1 3.90255 1.63949 14.1885
50 1 6.43605 13.2354 13.4519
51 1 4.15649 5.99975 9.2729
52 1 11.2673 -0.0349474 13.0499
53 1 7.49509 14.1757 3.49117
54 1 4.69361 2.11509 3.5636
55 1 12.2223 11.2781 8.44701
56 1 8.78888 10.5346 -0.201479
57 1 1.62898 1.7478 8.35958
58 1 8.51914 5.55098 11.5681
59 1 1.19874 9.16545 8.56075
60 1 10.4621 10.4538 3.36528
61 1 11.4961 4.32628 14.8194
62 1 10.535 6.88768 10.5289
63 1 4.8656 10.2441 10.0561
64 1 8.03892 8.04348 1.32452
65 1 14.2745 7.52017 8.61125
66 1 4.92895 14.7744 3.69165
67 1 5.76345 1.94567 6.81888
68 1 1.33507 0.346159 10.3985
69 1 11.4857 12.3961 1.75596
70 1 8.26992 4.23883 9.35613
71 1 15.1832 12.4944 5.64741
72 1 4.96848 11.3342 7.61298
73 1 0.913603 7.42459 14.304
74 1 1.10422 4.24809 11.8303
75 1 -0.0915467 0.584053 12.7174
76 1 12.4369 12.4888 5.96136
77 1 6.21966 1.09745 1.43382
78 1 5.50352 8.09247 7.01019
79 1 4.52652 3.96256 -0.191785
80 1 14.5286 1.80544 0.336027
81 1 8.53284 1.33035 2.66957
82 1 10.133 2.58599 10.2902
83 1 1.85154 4.38576 8.90257
84 1 12.6615 15.128 4.26375
85 1 10.1648 4.76159 4.89204
86 1 8.38056 6.33738 14.9438
87 1 2.80552 2.1974 12.0531
88 1 9.96107 14.718 10.8192
89 1 15.1459 11.3217 0.71924
90 1 9.71848 3.57766 12.7436
91 1 7.9992 3.80048 3.59933
92 1 3.3414 12.6471 2.72962
93 1 13.4659 3.572 8.18613
94 1 0.693334 7.4874 1.69911
95 1 13.3745 10.0561 12.7679
96 1 6.20315 2.77005 9.25795
97 1 5.74003 3.87087 5.18504
98 1 13.0218 1.84256 12.6902
99 1 8.93983 7.01145 5.41118
100 1 3.11674 8.17896 10.2669
101 1 4.45546 12.2645 12.0168
102 1 0.588533 12.6721 12.4193
103 1 6.79401 8.44432 4.70183
104 1 9.73864 9.46531 10.8298
105 1 7.90211 14.5217 8.97447
106 1 0.769104 14.3745 14.5012
107 1 7.35068 3.91376 0.358952
108 1 13.3089 6.64555 10.8522
109 1 6.61696 9.58154 13.6759
110 1 6.73237 6.86549 13.1306
111 1 3.57039 9.844 5.61279
112 1 1.55416 1.18465 5.69025
113 1 9.1397 13.2591 1.03017
114 1 3.96595 0.11997 6.12147
115 1 10.4431 8.0363 2.33447
116 1 3.74601 14.2808 10.3238
117 1 5.65101 11.6864 2.20479
118 1 3.19726 11.1106 14.2012
119 1 12.3041 2.96507 1.5697
120 1 12.4798 13.689 10.0255
121 1 13.8612 6.51057 13.6211
122 1 11.222 0.850747 2.47756
123 1 1.77553 1.3732 1.05558
124 1 8.06698 0.62758 6.70976
125 1 12.6997 10.6846 -0.158652
126 1 14.0026 3.75453 10.758
127 1 12.5938 4.06124 4.04313
128 1 4.94043 9.65568 0.433406
129 2 4.74617 4.87465 12.6187
130 2 4.45323 5.16214 13.9668
131 2 14.4497 4.907 13.9854
132 2 15.1889 3.92456 13.4101
133 2 7.33581 9.78335 4.47358
134 2 8.40496 10.3556 3.38564
135 2 0.918115 4.33951 4.54099
136 2 2.21083 3.75169 3.63252
137 2 14.453 10.59 10.0893
138 2 13.3744 10.1858 11.398
139 2 10.5075 0.641699 0.857156
140 2 9.29454 0.901187 15.1655
141 2 13.4404 9.76511 7.15799
142 2 13.1465 10.4985 5.82937
143 2 3.719 13.884 8.60749
144 2 3.56275 14.2522 6.92659
145 2 3.053 5.79023 2.1379
146 2 3.27075 6.11536 3.78531
147 2 5.2028 8.67026 1.82711
148 2 4.68661 7.28349 2.45865
149 2 13.3528 6.59097 2.73108
150 2 14.7686 7.06949 1.99537
151 2 0.730467 9.12552 13.8902
152 2 0.480312 10.1087 14.7093
153 2 13.9739 5.05748 4.49075
154 2 14.8989 6.37147 4.64572
155 2 10.7217 6.22399 7.21986
156 2 9.31989 6.44639 7.39301
157 2 12.3351 7.09071 4.95583
158 2 11.5096 7.67877 3.73565
159 2 9.88932 3.0623 7.68484
160 2 9.99991 3.61918 6.17966
161 2 4.10211 3.19643 11.2554
162 2 5.21996 3.78301 10.5302
163 2 8.16826 9.89335 11.4392
164 2 7.54433 11.4683 11.2633
165 2 8.22054 2.58758 15.0907
166 2 7.53144 1.83192 13.9319
167 2 6.31561 13.7318 15.1111
168 2 4.77395 14.0704 0.425875
169 2 14.3676 13.5077 9.87752
170 2 -0.00853648 13.1877 11.0277
171 2 11.4979 2.02258 6.30932
172 2 12.7081 1.0175 5.66632
173 2 10.9574 7.39018 13.2503
174 2 11.1021 7.49898 14.7372
175 2 1.17819 7.95491 5.7185
176 2 1.65033 8.21043 7.14112
177 2 11.5125 9.02725 5.90424
178 2 10.1616 9.91287 4.92263
179 2 14.4956 8.79344 5.03042
180 2 -0.125679 8.86283 3.76252
181 2 1.10597 11.9056 5.10035
182 2 2.46022 10.8799 4.85776
183 2 6.13721 1.03368 10.1612
184 2 5.02535 -0.192483 10.308
185 2 12.611 8.92093 -0.038088
186 2 13.1118 7.35336 0.844613
187 2 2.55836 7.09867 11.6975
188 2 3.08721 6.14179 12.817
189 2 2.98798 6.38221 5.84353
190 2 3.0758 4.98044 5.26783
191 2 7.40645 12.8302 8.23453
192 2 8.23241 11.8738 6.99976
193 2 2.53819 2.91507 1.72544
194 2 3.71445 2.9588 2.79876
195 2 2.84117 12.3373 15.0626
196 2 2.88785 13.0231 1.19386
197 2 -0.172042 5.45161 6.33156
198 2 15.0446 6.28674 8.097
199 2 11.3992 -0.209072 7.42458
200 2 11.1792 13.7137 7.10339
201 2 2.09864 14.05 2.59072
202 2 1.47197 -0.137437 1.79733
203 2 6.19029 14.8044 13.4381
204 2 5.98396 0.592906 12.3387
205 2 0.967413 9.10997 2.43447
206 2 0.806939 10.5938 3.27233
207 2 11.6436 13.9919 12.5679
208 2 11.6293 12.3361 12.5925
209 2 1.89752 12.8092 7.96673
210 2 0.390874 12.7795 8.69875
211 2 13.4162 15.1355 0.462284
212 2 13.3138 14.3399 14.7428
213 2 14.5117 -0.0871042 4.41111
214 2 0.467813 14.8523 3.67909
215 2 8.85979 13.6538 11.3716
216 2 9.17332 12.258 12.3507
217 2 13.2095 6.93704 7.21781
218 2 12.8132 5.34876 6.93826
219 2 8.76146 10.6186 8.16725
220 2 9.8116 9.54028 7.45505
221 2 10.5081 10.2289 12.0503
222 2 10.0389 10.8222 13.6497
223 2 9.85832 12.0823 5.25021
224 2 8.27753 11.4418 5.03885
225 2 4.61817 1.14319 13.9492
226 2 3.22304 1.77222 13.4194
227 2 7.36601 13.0025 13.1449
228 2 5.68362 12.6013 12.8295
229 2 3.45521 5.30941 9.12481
230 2 4.6687 5.42112 9.87911
231 2 10.9294 0.375072 14.0562
232 2 12.0271 0.825742 12.8718
233 2 8.07196 15.164 3.45918
234 2 7.95473 13.8545 4.28475
235 2 5.19595 1.63037 2.86248
236 2 5.32911 2.55204 3.86781
237 2 12.5186 11.0469 9.2314
238 2 11.3425 10.805 8.24934
239 2 8.42491 9.88058 0.51576
240 2 8.79828 11.5143 0.238902
241 2 1.46276 1.59618 7.31223
242 2 1.80995 2.67485 8.26433
243 2 8.82118 4.9564 12.0837
244 2 7.78268 6.12877 12.2347
245 2 1.73111 8.84855 9.15959
246 2 1.15672 10.0804 8.46255
247 2 10.8332 11.3099 2.98283
248 2 10.4207 9.61935 2.77835
249 2 11.0903 5.28839 14.9167
250 2 10.9749 3.98741 14.0458
251 2 10.6421 6.35575 9.66864
252 2 9.58273 6.4675 10.8327
253 2 5.77923 10.1395 10.3536
254 2 4.99674 10.8237 9.33546
255 2 8.03574 7.31247 0.528823
256 2 7.23668 7.94787 1.92917
257 2 14.0287 7.2467 9.52473
258 2 14.9416 8.09703 8.88876
259 2 5.95471 14.4796 3.8385
260 2 4.62464 13.8396 3.27881
261 2 6.64095 1.48424 6.65984
262 2 5.04643 1.23896 6.59779
263 2 1.53553 0.78736 9.46362
264 2 0.650667 15.0996 10.2634
265 2 10.7586 12.9328 1.29095
266 2 12.2972 12.8384 1.58024
267 2 8.36351 4.75688 10.1787
268 2 8.77176 4.84267 8.60569
269 2 -0.195053 13.4848 5.43633
270 2 0.22774 12.5056 6.40925
271 2 5.885 11.5362 7.56321
272 2 4.65668 12.2172 7.48613
273 2 0.137278 6.99907 14.405
274 2 1.19726 6.83339 13.4479
275 2 1.38849 5.17411 11.8762
276 2 0.406439 4.29139 11.1244
277 2 0.420888 0.613333 11.978
278 2 0.327574 0.327852 13.4382
279 2 13.2523 12.5754 5.76638
280 2 12.3545 12.1781 6.86242
281 2 5.97096 1.48604 0.623899
282 2 6.08051 0.252745 1.32466
283 2 5.12965 7.24411 7.47393
284 2 5.12226 8.81034 7.50327
285 2 4.39976 2.96685 14.7252
286 2 4.02604 4.08992 0.655205
287 2 13.9291 2.19317 0.9908
288 2 14.6839 2.4314 14.9255
289 2 7.78162 1.36879 2.0505
290 2 8.4744 2.14011 3.07906
291 2 9.65689 3.09425 9.51873
292 2 10.3302 1.59802 10.1778
293 2 1.49454 4.26862 9.83486
294 2 1.13333 4.94831 8.46666
295 2 12.0134 0.0660712 3.52319
296 2 12.2362 14.3974 4.72443
297 2 10.0064 5.67085 5.01657
298 2 9.49296 4.38803 4.42942
299 2 9.21338 6.74791 14.6758
300 2 7.58912 6.42459 14.1877
301 2 2.199 3.00513 11.9794
302 2 2.44362 1.57221 11.4279
303 2 10.8761 14.5911 10.2312
304 2 10.4125 15.1573 11.5243
305 2 -0.212929 12.2718 0.825044
306 2 0.105115 10.9405 1.50431
307 2 9.42618 2.8194 13.3625
308 2 10.1412 3.0485 11.9748
309 2 7.17509 4.02336 4.15735
310 2 7.98339 4.27505 2.72856
311 2 2.635 12.2033 3.37205
312 2 4.18336 12.0696 2.5137
313 2 13.3662 2.79163 7.74219
314 2 14.3476 4.00695 8.02913
315 2 1.1661 7.37618 0.790938
316 2 1.51191 7.24945 2.31501
317 2 14.3791 9.97631 13.1289
318 2 12.8539 10.418 13.4802
319 2 5.94815 2.48065 8.37363
320 2 6.98182 3.30708 9.23948
321 2 4.99674 4.39829 5.15516
322 2 5.66794 3.14514 5.9661
323 2 12.9543 2.50075 13.4055
324 2 13.8407 1.43923 12.8798
325 2 8.05237 7.32594 4.86504
326 2 9.28233 7.86063 5.52928
327 2 3.78827 7.31612 9.88441
328 2 3.87595 8.88026 10.1953
329 2 4.48178 11.5918 11.3193
330 2 4.1025 11.7948 12.9615
331 2 0.303824 11.879 13.0176
332 2 0.491934 13.4441 12.9757
333 2 6.34101 8.40066 5.48716
334 2 6.25707 8.20355 4.01455
335 2 9.70645 9.87127 9.86798
336 2 10.1826 8.69021 10.5671
337 2 8.5589 14.9335 9.54644
338 2 7.1483 14.6633 9.53566
339 2 0.125886 14.6392 -0.160689
340 2 1.75123 14.0656 14.7784
341 2 6.41169 4.1409 0.384888
342 2 7.63665 4.79853 0.15805
343 2 13.6497 5.79604 10.7198
344 2 12.1995 6.68195 10.7881
345 2 6.92358 10.0953 12.8509
346 2 7.44701 9.73394 14.2152
347 2 5.78798 6.40154 13.1817
348 2 6.82718 7.77509 13.2271
349 2 3.61958 10.3866 6.23892
350 2 2.90166 9.12209 5.82959
351 2 0.959826 0.450794 5.21079
352 2 1.39189 2.17608 5.23687
353 2 8.62716 13.3003 1.92205
354 2 9.48613 14.1587 0.798901
355 2 2.97209 0.577517 5.98589
356 2 4.39883 -0.188827 5.20541
357 2 11.1541 8.08175 1.60546
358 2 9.64611 7.73896 1.91755
359 2 2.95718 14.7057 10.2414
360 2 3.92112 13.5568 10.9252
361 2 5.89029 12.6459 1.79346
362 2 6.40447 11.4261 2.83454
363 2 2.5266 10.5127 13.9427
364 2 3.80455 10.3761 14.8121
365 2 11.8353 3.60061 0.884721
366 2 12.3756 3.48271 2.39886
367 2 12.3917 12.9586 9.19449
368 2 12.1871 13.3576 10.9458
369 2 13.6597 6.74403 12.7361
370 2 13.1343 6.61308 14.021
371 2 11.5457 1.90443 2.19153
372 2 10.2692 1.12654 2.7855
373 2 0.861597 1.60917 0.720558
374 2 2.29268 1.03173 0.308839
375 2 8.19303 -0.010016 7.40733
376 2 8.81044 1.28608 6.643
377 2 12.1754 11.2255 0.511824
378 2 13.7087 10.9265 0.222764
379 2 13.7923 3.66435 9.66813
380 2 13.4548 3.06851 11.0807
381 2 12.6029 3.43902 4.69048
382 2 11.5524 4.44905 4.28052
383 2 5.32578 10.4691 0.666281
384 2 5.42017 9.25821 15.0656
ITEM: TIMESTEP
400
ITEM: NUMBER OF ATOMS
384
ITEM: BOX BOUNDS pp pp pp
-1.3021218416963443e-01 1.5130212184169675e+01
-1.3021218416963443e-01 1.5130212184169675e+01
-1.3021218416963443e-01 1.5130212184169675e+01
ITEM: ATOMS id type x y z
1 1 4.5264 5.44817 12.5511
2 1 14.6562 3.86647 14.1018
3 1 7.30567 10.7799 3.46991
4 1 1.66838 3.52697 4.44779
5 1 13.5554 9.58157 9.9183
6 1 9.51392 0.0195941 15.0266
7 1 13.3183 9.78956 6.40575
8 1 3.52501 12.9924 7.91699
9 1 3.42405 6.02126 2.42484
10 1 5.52875 7.48312 2.13047
11 1 13.8247 6.65782 2.00055
12 1 0.613588 10.1056 13.989
13 1 -0.129476 5.27797 4.86643
14 1 9.59727 6.49793 8.1009
15 1 12.2649 6.83348 4.47792
16 1 10.2526 2.6584 6.72299
17 1 4.56465 3.75027 10.6075
18 1 6.84611 10.4801 11.1738
19 1 7.94971 2.05209 14.413
20 1 5.79917 13.5173 0.4766
21 1 15.1277 13.353 10.0647
22 1 12.2889 1.96168 5.66715
23 1 10.7501 6.4569 13.4302
24 1 2.05446 8.00472 6.44117
25 1 10.7676 8.99801 5.68621
26 1 15.0714 7.94584 4.76763
27 1 1.66632 11.2686 4.47512
28 1 5.96795 0.574728 10.3652
29 1 12.2473 7.8438 0.0995432
30 1 2.14105 6.46992 12.0529
31 1 3.2975 5.65711 5.24967
32 1 7.46148 11.9261 7.77866
33 1 3.27509 3.43385 1.80002
34 1 3.27696 12.9526 -0.00911073
35 1 -0.0293549 4.94224 7.49589
36 1 10.541 14.69 7.28848
37 1 0.955462 14.2417 1.80328
38 1 5.87639 0.92602 13.0793
39 1 0.368826 9.70025 2.85263
40 1 12.2855 13.0033 12.3634
41 1 1.10126 11.9554 8.09997
42 1 13.4817 13.9132 15.0848
43 1 15.0096 14.853 4.14341
44 1 8.3782 12.7758 11.9288
45 1 11.9849 5.96448 7.10466
46 1 9.67745 10.3827 7.97639
47 1 10.0962 10.9883 12.8148
48 1 8.58929 12.3534 5.3516
49 1 3.67347 1.70023 13.9685
50 1 6.1155 13.4466 13.2366
51 1 4.10418 6.14641 8.6847
52 1 11.206 0.103601 12.8848
53 1 7.38739 13.9734 3.51918
54 1 4.61746 2.13972 3.76597
55 1 12.0993 11.2133 8.48497
56 1 8.87087 10.2123 0.00144443
57 1 2.06004 1.47959 8.26229
58 1 8.43698 5.28599 11.6871
59 1 0.669981 9.48929 8.77454
60 1 10.1264 10.5857 3.68354
61 1 11.5926 3.88163 14.3777
62 1 10.0685 7.04343 10.482
63 1 4.61342 10.0854 9.72065
64 1 8.18846 8.06488 1.47412
65 1 14.011 7.26912 8.09324
66 1 4.87888 14.7064 3.7318
67 1 5.77084 1.76494 6.48185
68 1 1.43338 0.108468 10.2845
69 1 11.223 12.5787 1.84605
70 1 8.83701 3.96033 9.24077
71 1 15.0517 12.596 5.72245
72 1 5.02123 11.0935 7.23706
73 1 0.77978 7.53212 14.173
74 1 0.545613 4.19195 11.562
75 1 15.1036 0.709689 12.6294
76 1 12.3527 12.7144 5.94001
77 1 6.30099 1.04901 1.09749
78 1 5.57513 8.02562 7.48319
79 1 4.72916 4.03786 14.9815
80 1 14.5204 1.66249 0.636316
81 1 8.199 1.2729 3.04596
82 1 10.3137 2.06507 10.5252
83 1 2.09227 4.18981 8.79377
84 1 12.3191 14.9502 4.26409
85 1 9.73301 4.57026 4.92495
86 1 8.33091 6.13217 14.8039
87 1 2.64127 2.19367 11.543
88 1 10.1248 14.5082 10.6934
89 1 14.8129 11.3799 0.987693
90 1 9.72513 3.20247 12.7505
91 1 7.63019 3.71112 3.46431
92 1 3.11583 12.7412 2.75372
93 1 13.1445 3.72253 7.93162
94 1 1.24147 7.64824 1.65167
95 1 13.2379 9.7908 12.6959
96 1 6.46959 2.80071 8.91942
97 1 6.03774 4.42955 5.60428
98 1 12.7772 2.1089 12.5033
99 1 8.77652 7.19878 5.71589
100 1 2.8304 8.18433 9.94478
101 1 4.30232 12.0953 11.7545
102 1 1.04333 12.2225 12.1301
103 1 6.4829 8.37234 4.68387
104 1 9.24226 9.52553 10.5921
105 1 7.67649 14.3876 8.63091
106 1 1.04168 14.0457 14.1457
107 1 7.03493 4.00801 1.03848
108 1 12.5304 6.53305 11.0678
109 1 6.98513 9.47362 13.6178
110 1 6.71152 6.92908 12.7421
111 1 3.83619 9.72612 5.07999
112 1 1.37484 1.05002 5.65662
113 1 8.75427 13.0078 1.26249
114 1 3.61898 15.0581 6.33894
115 1 10.8099 8.24917 2.52382
116 1 3.8624 14.1702 10.1685
117 1 5.20914 11.3734 1.75018
118 1 3.20977 10.8062 14.0061
119 1 12.207 2.95593 1.75134
120 1 12.3724 13.4754 9.82104
121 1 13.7867 6.65567 13.362
122 1 10.7673 0.663436 2.43815
123 1 1.78041 1.50855 0.877271
124 1 8.17133 0.740625 5.98502
125 1 12.3427 10.4445 0.155459
126 1 13.3318 4.05218 10.6196
127 1 12.941 4.02404 4.36778
128 1 4.73734 9.46933 0.14296
129 2 4.56795 4.68784 11.8366
130 2 4.42917 5.03017 13.4766
131 2 14.1233 4.77191 14.2193
132 2 14.9792 4.35355 13.3341
133 2 7.27439 9.83772 3.91191
134 2 7.95298 10.777 2.8293
135 2 0.981091 4.36688 4.39238
136 2 2.22287 3.20309 3.64864
137 2 14.5651 9.64403 9.86988
138 2 13.3398 9.44163 10.9223
139 2 10.1098 0.232607 0.636919
140 2 8.97 0.800045 14.8061
141 2 13.4082 10.0798 7.28158
142 2 13.6293 10.4967 5.80848
143 2 3.62505 13.6518 8.74714
144 2 3.47217 13.4524 7.06405
145 2 2.98697 5.21757 2.31038
146 2 3.33498 5.87649 3.32247
147 2 5.26194 8.26491 1.5438
148 2 4.72675 6.91518 2.22466
149 2 13.5155 6.90348 2.893
150 2 14.8206 6.74819 2.18834
151 2 0.944244 8.97924 13.9921
152 2 0.130155 10.5559 14.7724
153 2 14.4215 4.56113 4.68167
154 2 14.9822 6.21459 4.31727
155 2 10.3918 6.05542 7.51747
156 2 9.15774 6.80936 7.33982
157 2 12.083 6.61034 5.49886
158 2 11.6616 7.42662 3.99546
159 2 9.93145 2.89224 7.63927
160 2 9.94207 3.42902 6.30715
161 2 3.98531 3.02115 10.7993
162 2 5.3409 3.49696 9.97487
163 2 7.43313 9.81471 10.7215
164 2 7.40736 11.2529 11.3132
165 2 7.62135 2.67622 15.0503
166 2 7.04892 1.704 14.0646
167 2 6.13425 13.4478 14.8309
168 2 4.81561 13.4857 0.381561
169 2 14.2402 13.505 10.0389
170 2 0.118032 12.9314 11.0299
171 2 11.4489 2.02278 6.26055
172 2 12.4623 1.2308 5.11301
173 2 11.293 6.27586 12.6326
174 2 11.2979 6.9397 14.1793
175 2 1.35543 7.79347 5.84604
176 2 1.80735 8.17816 7.26522
177 2 11.7065 8.99281 6.0151
178 2 10.7042 9.45918 4.88857
179 2 14.1527 8.17596 5.13951
180 2 15.1065 8.58552 3.88057
181 2 0.974877 11.6839 5.02136
182 2 2.39929 10.7073 4.92012
183 2 6.11342 1.33894 9.8861
184 2 4.97741 -0.120686 10.2529
185 2 12.3958 8.99588 0.0661093
186 2 12.7389 7.59049 0.904557
187 2 2.35958 7.22483 11.5226
188 2 2.91735 5.91088 12.1109
189 2 2.77684 6.30353 5.68813
190 2 2.73802 4.93516 5.03261
191 2 7.38085 12.5324 8.43676
192 2 7.7908 12.355 6.8699
193 2 2.63107 2.89349 1.40553
194 2 3.8239 2.73146 2.02754
195 2 3.18133 12.0919 14.6527
196 2 3.00799 12.6915 0.889968
197 2 0.105444 5.10841 6.68969
198 2 0.0138342 5.91164 7.80851
199 2 11.0786 14.8127 8.06864
200 2 11.159 14.2951 6.81914
201 2 1.93561 13.7303 2.1386
202 2 1.35717 15.0596 1.2244
203 2 5.89811 0.0394828 13.1866
204 2 5.99542 0.771774 12.0272
205 2 1.2171 9.23844 2.39934
206 2 0.945716 10.2314 3.34842
207 2 11.7533 13.6823 12.9152
208 2 11.7968 12.2234 12.7316
209 2 2.07439 12.3567 8.08016
210 2 0.688002 12.352 8.87681
211 2 13.7 14.7823 14.79
212 2 13.2561 13.2107 14.4757
213 2 13.9802 -0.0893681 4.02695
214 2 0.0723764 14.7805 3.18709
215 2 8.84052 13.2688 11.2512
216 2 9.07972 12.0147 12.1447
217 2 12.3867 6.63163 7.6639