ITEM: TIMESTEP
0
ITEM: NUMBER OF ATOMS
384
ITEM: BOX BOUNDS pp pp pp
-3.1180958401302572e-01 1.5311809584013066e+01
-3.1180958401302572e-01 1.5311809584013066e+01
-3.1180958401302572e-01 1.5311809584013066e+01
ITEM: ATOMS id type x y z
1 1 4.57679 5.50123 13.6944
2 1 14.8875 3.66367 14.1079
3 1 8.20115 10.8513 3.91518
4 1 1.55859 4.11103 4.68534
5 1 14.0046 11.0534 10.4291
6 1 10.1562 -0.0244194 -0.0179537
7 1 13.1461 9.78511 5.92123
8 1 3.48566 13.6848 7.87681
9 1 3.32305 6.30373 3.20589
10 1 5.30735 8.37688 2.36991
11 1 13.7801 6.32188 1.70807
12 1 0.692367 10.1945 14.1186
13 1 15.0627 5.43363 4.6639
14 1 9.98456 5.97612 7.92121
15 1 12.4056 7.19481 3.96576
16 1 9.83562 2.64919 6.79506
17 1 4.60459 4.17249 11.4106
18 1 7.55062 10.3381 11.1669
19 1 8.27543 1.89543 14.4455
20 1 5.83253 14.0038 0.549654
21 1 -0.277952 13.5963 10.2649
22 1 12.6457 2.09652 6.28487
23 1 10.7129 7.40871 14.2399
24 1 2.2119 7.88472 6.40809
25 1 10.4542 9.69036 5.97773
26 1 -0.282536 8.22967 4.81222
27 1 1.6652 11.2607 4.20606
28 1 6.17365 -0.094545 10.725
29 1 12.1932 8.4542 0.381712
30 1 2.29814 6.67565 12.652
31 1 3.74006 5.65533 5.77839
32 1 7.64075 12.3667 7.75101
33 1 2.57949 3.81144 2.08856
34 1 3.31976 13.3432 0.0677147
35 1 -0.0967938 5.37115 7.46928
36 1 11.1426 14.5448 7.59235
37 1 1.26174 14.8074 2.57217
38 1 6.41618 0.335516 13.3898
39 1 0.207637 9.92258 2.18818
40 1 12.6731 13.1901 12.8323
41 1 1.29363 11.9761 7.9846
42 1 13.2286 14.8362 0.439531
43 1 -0.123887 15.1905 5.01064
44 1 8.80795 12.7708 12.0788
45 1 12.4172 6.75949 6.79319
46 1 9.49869 10.6014 8.40823
47 1 10.544 10.9934 13.3575
48 1 8.99001 12.8372 5.44675
49 1 4.04829 1.51716 14.6149
50 1 6.69928 13.1999 13.7041
51 1 4.43379 6.10378 9.26553
52 1 11.4216 -0.0969869 13.0672
53 1 8.10878 14.4288 3.40524
54 1 4.3962 2.37166 3.28729
55 1 12.1316 11.4523 8.45349
56 1 8.7458 10.8517 -0.213292
57 1 1.53862 1.7361 8.48855
58 1 8.69585 5.89847 11.616
59 1 1.22107 9.19196 8.49846
60 1 10.635 10.5731 3.14594
61 1 11.4957 4.51089 15.2148
62 1 10.9209 6.7156 10.446
63 1 4.94638 10.4223 10.3546
64 1 7.94749 8.55464 1.09697
65 1 14.5919 7.80968 8.4877
66 1 5.26248 14.7619 3.62401
67 1 5.62202 2.26942 6.97039
68 1 1.29568 -0.0251437 10.348
69 1 11.6689 12.7598 1.5126
70 1 8.10674 4.34492 9.29769
71 1 15.2574 12.5827 5.71394
72 1 5.13758 11.4238 7.95676
73 1 0.807368 7.59384 14.5622
74 1 1.07308 4.35508 11.6836
75 1 -0.103901 0.899318 12.6958
76 1 12.4336 12.7126 5.99741
77 1 6.5124 0.898083 1.44852
78 1 5.22926 7.74021 7.34722
79 1 4.69818 3.85809 0.25821
80 1 14.6318 1.53081 0.260033
81 1 8.7843 1.26425 2.88569
82 1 10.1715 2.86217 10.2074
83 1 1.97586 4.56417 8.94346
84 1 12.6683 15.2799 4.82665
85 1 10.1623 4.44247 4.67024
86 1 8.26116 6.29332 15.2182
87 1 2.75694 2.33071 12.3211
88 1 10.1168 15.0402 10.6766
89 1 0.0214213 11.8389 0.424274
90 1 9.92368 3.73613 12.9889
91 1 7.93039 3.8304 3.09944
92 1 3.45334 12.7245 2.72154
93 1 13.7442 3.34545 8.32257
94 1 1.06378 7.50528 1.70711
95 1 13.5608 9.51663 12.896
96 1 6.16563 2.34739 9.6158
97 1 6.00658 4.12469 4.96415
98 1 13.0409 2.11594 12.6389
99 1 9.44842 7.22402 5.61094
100 1 3.08802 8.31472 10.412
101 1 4.27645 12.564 12.0172
102 1 0.247817 12.7339 12.6695
103 1 6.92237 8.32243 4.80264
104 1 10.2096 9.4039 11.0142
105 1 8.10819 14.6608 9.11245
106 1 0.724807 14.5893 14.8093
107 1 7.38606 3.87893 0.612739
108 1 13.59 6.17467 11.3541
109 1 6.57455 9.82429 14.0409
110 1 6.72525 7.05567 13.1783
111 1 3.66994 10.3273 5.96103
112 1 1.66543 1.60839 5.77048
113 1 9.05834 13.0173 1.11863
114 1 4.11235 0.213829 6.02437
115 1 10.3679 8.11545 2.36753
116 1 3.8208 14.5044 10.4834
117 1 6.27696 11.8524 2.07137
118 1 3.1417 11.1769 14.1451
119 1 12.971 3.21476 1.56998
120 1 12.4061 13.5738 10.1924
121 1 14.0948 6.56232 13.8874
122 1 11.4172 0.689063 2.37021
123 1 1.65778 1.52802 1.12949
124 1 7.74882 0.714644 6.86752
125 1 13.0368 10.8806 0.0461404
126 1 14.1536 3.59273 10.8941
127 1 12.9937 3.74289 4.44237
128 1 4.93288 10.2326 0.481908
129 2 4.52916 4.87676 12.9369
130 2 4.69703 5.06241 14.547
131 2 14.6886 4.58995 14.3163
132 2 0.0945933 3.63697 13.6264
133 2 7.74221 10.0755 4.24889
134 2 8.99342 10.7228 3.34745
135 2 0.788771 4.72927 4.53377
136 2 1.81069 3.95163 3.77685
137 2 14.4008 11.9252 10.4575
138 2 13.9069 10.7269 11.3647
139 2 10.6725 0.201823 0.765773
140 2 9.47367 0.652849 -0.0632908
141 2 13.5922 9.97565 6.76473
142 2 13.2152 10.5455 5.32572
143 2 3.67781 14.0964 8.7488
144 2 3.53939 14.3835 7.27865
145 2 3.09567 5.45978 2.78243
146 2 3.60518 6.19337 4.09913
147 2 5.08995 9.05489 1.76222
148 2 4.54185 7.79795 2.5309
149 2 13.4381 6.67871 2.59019
150 2 14.7355 6.25337 1.79471
151 2 0.77524 9.18308 14.2443
152 2 0.388115 10.6288 14.9234
153 2 14.1894 4.91997 4.56536
154 2 14.9228 6.4107 4.60147
155 2 10.8762 5.93786 7.61697
156 2 9.58879 6.53361 7.20672
157 2 12.1014 7.06547 4.8105
158 2 11.5829 7.27566 3.48345
159 2 9.70669 3.06202 7.62541
160 2 9.96186 3.35305 6.0781
161 2 3.89127 3.51534 11.556
162 2 5.31618 3.63484 11.0911
163 2 8.36256 9.80951 10.99
164 2 7.91946 11.2623 11.3115
165 2 7.80256 2.56448 14.9346
166 2 7.58248 1.21916 14.1315
167 2 6.10462 13.5421 -0.242407
168 2 4.85977 13.825 0.528199
169 2 14.4101 13.8153 10.1623
170 2 -0.0704958 13.4422 11.1966
171 2 11.7088 2.1063 6.54679
172 2 12.6961 1.18401 5.89058
173 2 10.9921 7.5299 13.3514
174 2 11.2636 8.01166 14.7268
175 2 1.57728 7.89927 5.7134
176 2 1.87051 8.36741 7.16573
177 2 11.4302 9.71213 6.20698
178 2 10.3486 10.1292 5.1128
179 2 14.4149 8.445 5.04536
180 2 0.00164071 8.8165 4.03796
181 2 1.02838 11.8189 4.67407
182 2 2.36173 10.8675 4.79517
183 2 6.32838 0.734699 10.265
184 2 5.21972 -0.301306 10.6492
185 2 12.568 9.37229 0.310345
186 2 12.8634 7.95827 0.824663
187 2 2.56428 7.41349 12.0109
188 2 3.14156 6.4193 13.0935
189 2 3.16723 6.41343 5.9805
190 2 3.10221 4.98312 5.63197
191 2 7.73547 13.1577 8.33842
192 2 8.06104 12.6116 6.87934
193 2 1.75422 3.38105 1.7562
194 2 3.25148 3.1727 2.47226
195 2 3.15037 12.6412 14.9757
196 2 3.16776 12.9566 0.983888
197 2 0.0720948 5.37286 6.52711
198 2 -0.245356 6.34024 7.61737
199 2 11.6512 14.8569 8.35832
200 2 11.802 13.9131 7.23812
201 2 2.07792 14.3411 2.56175
202 2 1.50629 0.044002 2.08403
203 2 6.3968 14.9261 13.4491
204 2 6.20534 0.425411 12.4267
205 2 0.660795 9.1318 1.85703
206 2 0.694078 10.391 2.87312
207 2 12.3708 14.0972 13.0916
208 2 12.1841 12.5232 13.366
209 2 2.09163 12.5603 7.87369
210 2 0.901668 12.2269 8.80367
211 2 13.6981 0.109016 0.335681
212 2 13.4443 14.3386 15.279
213 2 14.5376 15.2076 4.93591
214 2 0.228484 14.9795 4.13145
215 2 9.24837 13.4527 11.622
216 2 9.52013 12.2417 12.5392
217 2 12.875 7.30125 7.44426
218 2 13.1287 6.09272 6.70831
219 2 8.70364 11.2231 8.31889
220 2 9.67729 10.2938 7.51515
221 2 10.4955 10.2933 12.7118
222 2 10.0325 10.7711 14.1408
223 2 9.87115 13.0955 5.5737
224 2 8.95145 12.0108 4.93614
225 2 4.74251 0.928236 14.2575
226 2 3.48888 1.81195 13.8977
227 2 7.56401 13.1017 13.1985
228 2 6.02622 12.6782 13.2435
229 2 3.65548 5.64787 8.88705
230 2 4.53028 5.65688 10.1121
231 2 10.7483 -0.0654962 13.7661
232 2 11.7812 0.808853 13.0779
233 2 8.36482 -0.291862 3.46612
234 2 8.34757 14.0066 4.25098
235 2 5.1094 1.81781 2.95108
236 2 4.6411 2.96006 4.03817
237 2 12.5339 11.0417 9.22128
238 2 11.1841 11.2095 8.49369
239 2 8.60742 10.312 0.576946
240 2 8.69537 11.7883 0.0583599
241 2 1.42282 1.68337 7.50469
242 2 1.60998 2.65673 8.73322
243 2 8.87953 5.11923 12.1645
244 2 8.03029 6.40716 12.1505
245 2 1.95332 8.95172 9.16853
246 2 1.28006 10.1574 8.3047
247 2 11.2632 11.2403 2.79611
248 2 10.7957 9.70539 2.72449
249 2 11.5653 5.40273 -0.288322
250 2 11.1896 4.32648 14.2564
251 2 10.4204 6.65681 9.62663
252 2 10.2607 6.46258 11.0571
253 2 5.87632 10.1769 10.5904
254 2 4.94364 10.8143 9.46912
255 2 7.91802 7.6928 0.604333
256 2 7.17835 8.74025 1.63464
257 2 14.2008 7.92642 9.35992
258 2 -0.267797 8.44072 8.55252
259 2 6.16366 14.3915 3.8125
260 2 4.75946 14.0077 3.26281
261 2 6.35085 1.60272 6.90857
262 2 4.84301 1.75402 6.76165
263 2 1.34137 0.662419 9.62968
264 2 0.817817 14.7755 10.0578
265 2 10.8342 13.0339 1.10914
266 2 12.2496 13.5788 1.43103
267 2 7.99168 4.93257 10.0429
268 2 8.59208 4.87508 8.55834
269 2 -0.0863874 13.5026 5.64494
270 2 0.00602987 12.1735 6.56287
271 2 6.0476 11.6847 7.84187
272 2 4.65027 12.2574 7.8746
273 2 -0.10786 7.21382 14.4417
274 2 1.40859 7.20909 13.8607
275 2 1.10879 5.19843 12.1297
276 2 0.142322 4.18446 11.4107
277 2 0.192301 0.569522 11.8253
278 2 0.262058 0.216297 13.3227
279 2 13.325 12.966 5.76917
280 2 12.474 12.1815 6.79075
281 2 6.96454 1.33987 0.72514
282 2 6.22808 -0.0168944 1.14781
283 2 5.28424 6.95392 7.95734
284 2 5.69738 8.44349 7.79401
285 2 4.59695 2.96295 -0.156096
286 2 4.05776 3.8329 1.0606
287 2 14.2623 2.20361 0.861912
288 2 14.7961 2.02476 15.1013
289 2 7.90736 0.984376 2.41964
290 2 8.42535 2.08554 3.23522
291 2 9.33834 3.30929 9.83257
292 2 10.1754 1.88055 10.1119
293 2 1.75381 4.52695 9.90946
294 2 1.11552 4.78978 8.54253
295 2 12.2645 0.0873025 4.07993
296 2 12.0334 14.6435 5.15054
297 2 9.97133 5.30379 5.02216
298 2 9.51596 4.30903 3.95105
299 2 9.11176 6.41377 14.7882
300 2 7.57568 6.54 14.599
301 2 2.07189 2.92609 11.9449
302 2 2.69894 1.52435 11.845
303 2 10.8501 14.3815 10.4642
304 2 10.5118 -0.206863 11.478
305 2 0.274248 12.7719 0.61942
306 2 0.108425 11.2293 1.22179
307 2 9.70727 2.84376 13.3266
308 2 10.3129 3.49932 12.1129
309 2 7.16744 3.93944 3.6373
310 2 7.68964 3.77425 2.12389
311 2 2.7812 12.2345 3.34142
312 2 4.17512 12.108 2.65722
313 2 13.4252 2.63657 7.76521
314 2 14.4885 3.85196 7.85505
315 2 1.16553 7.50623 0.684607
316 2 1.80702 6.9489 2.01705
317 2 14.4305 9.58843 13.243
318 2 13.0187 10.0336 13.4694
319 2 5.70123 2.57075 8.68482
320 2 6.80813 3.05178 9.52933
321 2 5.35787 4.80808 5.12533
322 2 5.96938 3.53575 5.71789
323 2 13.0854 2.74416 13.3668
324 2 13.871 1.59988 12.7008
325 2 8.54415 7.16809 5.28465
326 2 9.76316 8.11779 5.62097
327 2 3.5805 7.58031 10.0651
328 2 3.76188 9.05652 10.3377
329 2 4.55808 11.8882 11.3243
330 2 3.56374 12.075 12.5347
331 2 0.334551 11.7965 12.6005
332 2 0.24849 12.8839 13.5924
333 2 6.35726 8.22802 5.65351
334 2 6.38531 8.12785 4.02112
335 2 10.214 9.5859 10.0692
336 2 10.6644 8.57403 11.1276
337 2 8.95214 14.8857 9.64428
338 2 7.3584 14.7538 9.70982
339 2 0.591563 15.0693 0.0182509
340 2 1.70203 14.3696 14.7724
341 2 6.4741 3.89198 0.306924
342 2 7.8908 4.74294 0.474307
343 2 13.7745 5.25403 11.174
344 2 12.6407 6.3597 11.1641
345 2 6.61181 10.3071 13.1711
346 2 7.38294 10.2018 14.4287
347 2 5.92965 6.53312 13.3142
348 2 6.65131 8.00804 13.4902
349 2 4.1508 10.9057 6.58172
350 2 3.72612 9.43762 6.27968
351 2 0.960879 1.05271 5.33877
352 2 1.48012 2.49213 5.40543
353 2 8.71011 13.4532 1.93204
354 2 8.99593 13.78 0.520382
355 2 3.28533 0.709593 5.89467
356 2 4.52263 -0.105961 5.1872
357 2 10.8957 8.12501 1.5533
358 2 9.392 8.09909 2.00114
359 2 2.85608 14.8006 10.6062
360 2 3.90293 13.7417 11.0449
361 2 6.48734 12.6937 1.54518
362 2 7.04029 11.6822 2.67807
363 2 2.24681 10.7375 14.3261
364 2 3.668 10.6767 14.8241
365 2 12.3482 3.69431 0.972113
366 2 13.2921 3.83378 2.19605
367 2 12.5073 12.8061 9.60602
368 2 12.5354 13.311 11.1419
369 2 13.9506 6.55755 12.8999
370 2 13.4462 7.1125 14.3857
371 2 11.8334 1.45816 2.05064
372 2 10.4376 0.894116 2.52875
373 2 0.844146 1.54638 0.605455
374 2 2.39804 1.38307 0.478242
375 2 7.77884 0.12269 7.66547
376 2 8.60235 1.23456 6.91956
377 2 12.4122 11.5105 0.551261
378 2 13.9301 11.2794 0.187093
379 2 13.8259 3.47873 9.96028
380 2 13.5184 3.1733 11.5056
381 2 12.9666 3.11167 5.2382
382 2 12.0906 4.05916 4.29522
383 2 5.48443 10.7696 1.07083
384 2 5.47524 10.05 -0.286949
ITEM: TIMESTEP
200
ITEM: NUMBER OF ATOMS
384
ITEM: BOX BOUNDS pp pp pp
-2.2989006347002316e-01 1.5229890063470055e+01
-2.0075667969305755e-01 1.5200756679693095e+01
-2.0224793522469486e-01 1.5202247935224751e+01
ITEM: ATOMS id type x y z
1 1 4.5524 5.63973 13.1765
2 1 14.5129 3.87067 14.0587
3 1 7.6558 10.612 3.68357
4 1 1.63919 3.87766 4.63685
5 1 13.7173 10.0089 10.2592
6 1 9.93095 0.178883 -0.0947287
7 1 13.3455 9.62552 6.08147
8 1 3.4969 13.4339 7.68306
9 1 3.24643 6.36934 2.85036
10 1 5.41805 8.02129 2.41146
11 1 13.8407 6.52166 1.84035
12 1 0.514302 10.1392 13.6962
13 1 14.9078 5.34375 4.7801
14 1 9.87201 6.0237 7.81103
15 1 12.2206 7.01161 3.96006
16 1 9.9763 2.90032 6.81627
17 1 4.63493 3.94934 11.2967
18 1 7.39179 10.5019 11.1924
19 1 8.27543 1.97072 14.3936
20 1 5.80727 13.7555 0.478555
21 1 -0.215308 13.16 9.88065
22 1 12.488 1.98302 6.01832
23 1 10.6911 6.98917 14.0171
24 1 1.94325 7.77555 6.16376
25 1 10.5403 9.23907 5.7171
26 1 15.2104 8.17079 4.59045
27 1 1.73684 11.3648 4.4401
28 1 5.98627 0.329799 10.6827
29 1 12.229 8.04675 0.25313
30 1 2.18219 6.63337 12.343
31 1 3.58235 5.6744 5.31481
32 1 7.72761 11.9529 7.8434
33 1 2.86873 3.67954 2.13178
34 1 2.92671 13.3766 0.185995
35 1 -0.152884 5.43447 7.57406
36 1 10.7898 14.6815 7.40983
37 1 1.44442 14.5205 2.5375
38 1 6.02061 0.426899 13.3686
39 1 0.491479 9.98498 2.54848
40 1 12.3145 13.0252 12.6513
41 1 1.05526 12.1206 7.98517
42 1 13.8139 14.1397 0.191788
43 1 -0.106388 15.0481 4.66999
44 1 8.61642 12.7344 11.7891
45 1 12.4283 6.27159 6.68133
46 1 9.81613 10.2966 8.2359
47 1 10.5106 10.9818 12.8607
48 1 8.91663 12.3384 5.27006
49 1 3.80691 1.59788 14.317
50 1 6.47305 13.1671 13.4784
51 1 4.02495 5.99566 9.07008
52 1 11.296 -0.0477959 12.9249
53 1 7.55837 14.1212 3.43311
54 1 4.52611 2.18533 3.41348
55 1 12.2088 11.2114 8.53189
56 1 8.75305 10.3386 15.1928
57 1 1.69099 1.76088 8.44035
58 1 8.52493 5.54363 11.5877
59 1 1.2707 9.1235 8.42649
60 1 10.5965 10.5016 3.30517
61 1 11.5798 4.29736 14.7948
62 1 10.6583 6.85924 10.5676
63 1 4.90968 10.0871 9.90114
64 1 8.00637 8.03664 1.34461
65 1 14.2777 7.7446 8.49992
66 1 4.99027 14.7399 3.67854
67 1 5.68713 1.89675 6.76616
68 1 1.44073 0.354874 10.532
69 1 11.3913 12.3797 1.5619
70 1 8.14133 4.24021 9.36745
71 1 15.1994 12.5019 5.65898
72 1 5.06977 11.2555 7.63798
73 1 0.815335 7.42432 14.3591
74 1 1.04786 4.30693 11.8383
75 1 -0.153733 0.71403 12.7888
76 1 12.545 12.3744 6.09393
77 1 6.39696 1.03409 1.30192
78 1 5.52508 8.09539 7.18045
79 1 4.50273 3.99663 -0.14562
80 1 14.6546 1.71845 0.253228
81 1 8.66685 1.22688 2.77997
82 1 10.1253 2.61495 10.3173
83 1 1.7227 4.36287 8.79629
84 1 12.6783 15.1537 4.12552
85 1 10.1674 4.75461 4.9942
86 1 8.45075 6.21834 14.9997
87 1 2.73572 2.29762 12.1371
88 1 9.92818 14.6019 10.7589
89 1 -0.224677 11.3313 0.560999
90 1 9.69948 3.57418 12.7233
91 1 8.03704 3.8119 3.62672
92 1 3.25636 12.5543 2.71305
93 1 13.4181 3.52909 8.14885
94 1 0.773891 7.45232 1.79385
95 1 13.3562 9.86165 12.7582
96 1 6.11811 2.72607 9.19704
97 1 5.68157 3.83748 5.08473
98 1 13.0082 1.92516 12.7596
99 1 8.96703 7.07231 5.37707
100 1 3.03063 8.15599 10.2417
101 1 4.61637 12.0903 12.0147
102 1 0.521069 12.6266 12.3115
103 1 6.7682 8.40644 4.71034
104 1 9.81639 9.48355 10.8238
105 1 7.91569 14.5788 8.98394
106 1 0.61378 14.3231 14.412
107 1 7.39437 3.89865 0.704754
108 1 13.389 6.72622 11.0111
109 1 6.70825 9.49498 13.6106
110 1 6.8654 6.8822 13.1668
111 1 3.55701 9.9672 5.73916
112 1 1.62179 1.22648 5.71455
113 1 9.01867 13.1841 0.918131
114 1 3.89306 -0.000174447 6.10955
115 1 10.4582 8.11642 2.30777
116 1 3.88096 14.2136 10.3547
117 1 5.61784 11.6532 2.21142
118 1 3.15103 11.1306 14.1045
119 1 12.4291 2.93211 1.58336
120 1 12.5563 13.4945 9.98647
121 1 13.7865 6.37117 13.7403
122 1 11.3536 0.706926 2.12859
123 1 1.82677 1.28072 1.0744
124 1 8.08045 0.764889 6.65027
125 1 12.7025 10.5971 -0.194404
126 1 13.9982 3.82652 10.7309
127 1 12.6128 3.95887 4.08163
128 1 4.89022 9.61907 0.311497
129 2 4.73941 4.87952 12.5887
130 2 4.52415 5.23988 13.9238
131 2 14.4355 4.87732 14.131
132 2 15.1134 3.85991 13.4112
133 2 7.43711 9.73832 4.38838
134 2 8.52903 10.3719 3.41888
135 2 0.819383 4.40389 4.51397
136 2 2.11529 3.74158 3.6953
137 2 14.4905 10.4975 10.1578
138 2 13.3851 9.89561 11.3323
139 2 10.5483 0.436001 0.742548
140 2 9.22864 0.83145 15.1824
141 2 13.6004 9.60747 7.15743
142 2 13.0163 10.4647 5.96479
143 2 3.86721 13.8339 8.63371
144 2 3.62785 14.0924 6.97964
145 2 3.10469 5.69377 2.10483
146 2 3.39698 6.0153 3.69895
147 2 5.02828 8.68235 1.60705
148 2 4.6682 7.31672 2.37942
149 2 13.3091 6.53814 2.67788
150 2 14.8166 7.03654 2.04899
151 2 0.595984 9.14937 13.8038
152 2 0.504951 10.2358 14.5715
153 2 13.9413 4.92709 4.40807
154 2 14.8207 6.33083 4.5762
155 2 10.7288 6.26487 7.18885
156 2 9.36588 6.49252 7.25
157 2 12.2033 7.14928 4.90494
158 2 11.3978 7.60979 3.63064
159 2 10.0975 3.10898 7.77524
160 2 9.94393 3.71591 6.25128
161 2 3.99354 3.1926 11.3225
162 2 5.19688 3.67709 10.6215
163 2 8.12184 9.91173 11.378
164 2 7.5661 11.536 11.2326
165 2 8.19998 2.62917 15.1801
166 2 7.46576 1.93099 13.9788
167 2 6.26731 13.5853 14.9718
168 2 4.77203 14.0526 0.35661
169 2 14.366 13.3772 9.77
170 2 -0.015426 13.0622 10.8608
171 2 11.4782 2.12541 6.11448
172 2 12.7129 1.0977 5.48518
173 2 11.0955 7.166 13.0949
174 2 11.1624 7.43777 14.6248
175 2 1.12151 7.95445 5.61621
176 2 1.71312 8.14676 7.02155
177 2 11.5696 8.99975 5.91358
178 2 10.3383 9.99584 4.84201
179 2 14.5515 8.78438 4.93844
180 2 -0.158404 8.80476 3.6604
181 2 1.0664 11.8452 5.06548
182 2 2.44153 10.811 4.94054
183 2 6.15725 1.10813 10.1377
184 2 5.13685 -0.17087 10.3778
185 2 12.6166 8.91578 -0.079715
186 2 13.1342 7.38381 0.796637
187 2 2.51906 7.1589 11.7291
188 2 3.01603 6.23747 12.8539
189 2 3.15538 6.3225 5.86007
190 2 3.0061 4.95386 5.23646
191 2 7.44978 12.9403 8.20973
192 2 8.25595 11.9427 6.98622
193 2 2.34018 2.95876 1.66869
194 2 3.57039 3.08983 2.61239
195 2 2.63779 12.4685 15.0257
196 2 2.79078 13.0448 1.1837
197 2 15.2272 5.52351 6.34403
198 2 15.0691 6.49347 8.01868
199 2 11.5242 -0.164422 7.69369
200 2 11.3101 13.7924 7.16056
201 2 2.19932 14.0098 2.81271
202 2 1.62834 -0.130548 1.94442
203 2 6.14844 14.7672 13.441
204 2 5.97191 0.690599 12.4158
205 2 1.12833 9.20637 2.39828
206 2 0.783627 10.5829 3.20722
207 2 11.7295 13.958 12.5662
208 2 11.693 12.3337 12.7109
209 2 1.99419 12.6217 8.00762
210 2 0.415249 12.6249 8.64436
211 2 13.7049 15.0623 0.341063
212 2 13.3307 14.0633 14.8266
213 2 14.4753 -0.0707439 4.46278
214 2 0.45489 14.8981 3.8242
215 2 8.9319 13.5972 11.3291
216 2 9.21569 12.2126 12.3631
217 2 13.2082 6.90561 7.06894
218 2 12.8138 5.34873 6.73836
219 2 8.81005 10.6138 8.16203
220 2 9.89979 9.68394 7.37415
221 2 10.6025 10.1429 12.142
222 2 10.1112 10.8007 13.701
223 2 9.89107 12.0193 5.19616
224 2 8.2578 11.3791 5.0126
225 2 4.56087 1.1464 14.1109
226 2 3.1465 1.76158 13.5402
227 2 7.41224 13.0394 13.1034
228 2 5.76691 12.4401 13.0021
229 2 3.34563 5.27326 8.9531
230 2 4.51328 5.44902 9.70978
231 2 10.8566 0.346684 13.9118
232 2 12.0191 0.883255 12.862
233 2 8.0898 15.1204 3.46186
234 2 8.04764 13.7674 4.19338
235 2 5.0807 1.58959 2.80475
236 2 5.15444 2.52161 3.93306
237 2 12.4601 10.9503 9.28774
238 2 11.3172 10.7848 8.28138
239 2 8.38686 9.59462 0.450474
240 2 8.65 11.2784 0.235345
241 2 1.51917 1.58297 7.4024
242 2 1.79277 2.71396 8.39465
243 2 8.8822 4.97628 12.1205
244 2 7.83855 6.14708 12.2773
245 2 1.79972 8.79658 9.02202
246 2 1.28088 10.0326 8.25777
247 2 10.8898 11.4011 2.95601
248 2 10.4548 9.66387 2.70877
249 2 11.1444 5.27393 14.9534
250 2 11.0157 3.96116 14.0647
251 2 10.8128 6.31387 9.74172
252 2 9.68081 6.47404 10.8385
253 2 5.8239 10.043 10.2354
254 2 5.02447 10.7308 9.22554
255 2 8.06388 7.23783 0.649227
256 2 7.09501 8.0782 1.78201
257 2 13.9952 7.52126 9.40048
258 2 15.043 8.25073 8.77316
259 2 6.02422 14.463 3.77997
260 2 4.68988 13.7933 3.3356
261 2 6.58854 1.45972 6.61429
262 2 5.00735 1.16359 6.50295
263 2 1.69176 0.736832 9.54355
264 2 0.763447 15.0473 10.3664
265 2 10.5744 12.8237 1.13599
266 2 12.0951 12.9681 1.52743
267 2 8.34507 4.75771 10.1855
268 2 8.59999 4.82527 8.58638
269 2 -0.115172 13.4962 5.50267
270 2 0.28904 12.376 6.35781
271 2 5.96981 11.5321 7.58194
272 2 4.77896 12.159 7.52111
273 2 0.048703 6.99891 14.5171
274 2 1.06888 6.81716 13.5306
275 2 1.32946 5.22688 11.9013
276 2 0.344319 4.30017 11.1247
277 2 0.38882 0.581817 12.0617
278 2 0.174405 0.40726 13.5524
279 2 13.3327 12.4515 5.81981
280 2 12.4902 12.1169 7.00787
281 2 5.93776 1.34236 0.533082
282 2 6.29779 0.174005 1.27409
283 2 5.35057 7.24896 7.67289
284 2 5.36187 8.73145 7.88705
285 2 4.40206 2.99541 14.8411
286 2 3.94056 4.15901 0.67775
287 2 14.0991 2.1334 0.927322
288 2 14.7915 2.3937 14.8507
289 2 7.98068 1.36879 2.09958
290 2 8.60513 1.98729 3.26456
291 2 9.60958 3.22364 9.65303
292 2 10.4791 1.73229 10.0598
293 2 1.28495 4.31458 9.71255
294 2 1.04818 5.01532 8.34205
295 2 12.0097 -0.00237085 3.3077
296 2 12.3753 14.3928 4.62262
297 2 10.0097 5.67588 5.01972
298 2 9.52356 4.41113 4.46692
299 2 9.28021 6.59441 14.731
300 2 7.69494 6.34928 14.2406
301 2 2.13779 3.07815 11.985
302 2 2.37564 1.63606 11.5444
303 2 10.7533 14.4548 10.0445
304 2 10.4672 15.0059 11.4297
305 2 15.1637 12.2809 0.722787
306 2 0.222471 11.0102 1.32513
307 2 9.3718 2.92876 13.4522
308 2 10.073 2.91637 11.9955
309 2 7.19756 3.99983 4.16777
310 2 7.92896 4.01614 2.67187
311 2 2.52602 12.0895 3.28349
312 2 4.09088 12.0079 2.54618
313 2 13.323 2.8091 7.6241
314 2 14.242 4.01344 7.9424
315 2 1.13832 7.44047 0.865835
316 2 1.67416 7.15807 2.20804
317 2 14.35 9.8738 13.1044
318 2 12.82 10.2944 13.3811
319 2 5.86638 2.46349 8.30126
320 2 6.89123 3.24664 9.15757
321 2 4.94912 4.41439 5.03053
322 2 5.66837 3.20291 5.89412
323 2 12.9244 2.5695 13.4931
324 2 13.8498 1.52737 12.8937
325 2 7.98538 7.31373 4.92257
326 2 9.29776 7.90269 5.40812
327 2 3.69513 7.34877 9.74436
328 2 3.80167 8.84825 10.1755
329 2 4.61257 11.4179 11.3294
330 2 4.16463 11.6425 12.9361
331 2 0.211702 11.8192 12.8525
332 2 0.430544 13.3661 12.8953
333 2 6.3467 8.41202 5.50769
334 2 6.21043 8.25833 4.01765
335 2 9.79667 9.85328 9.88353
336 2 10.2595 8.70667 10.6087
337 2 8.61163 14.9399 9.56363
338 2 7.20025 14.7366 9.5737
339 2 -0.0638513 14.5728 15.1851
340 2 1.57788 14.1069 14.7081
341 2 6.47304 4.13929 0.661938
342 2 7.66684 4.78553 0.476697
343 2 13.6277 5.8647 10.7613
344 2 12.277 6.80829 10.8816
345 2 7.00114 10.0343 12.806
346 2 7.51392 9.66748 14.1751
347 2 5.91009 6.42546 13.192
348 2 6.96037 7.7937 13.2477
349 2 3.6621 10.3956 6.42937
350 2 2.9003 9.19832 5.8379
351 2 0.92477 0.508097 5.30161
352 2 1.382 2.23447 5.30081
353 2 8.57853 13.2109 1.85317
354 2 9.31675 14.1035 0.725528
355 2 2.90866 0.532447 6.028
356 2 4.31435 15.1739 5.17852
357 2 11.1726 8.16279 1.57294
358 2 9.64789 7.8176 1.94981
359 2 3.13158 14.7004 10.4171
360 2 4.11913 13.5098 10.9505
361 2 5.80016 12.5821 1.74045
362 2 6.45605 11.448 2.72523
363 2 2.50972 10.5819 13.6824
364 2 3.68405 10.3042 14.6789
365 2 11.993 3.63157 0.901512
366 2 12.4266 3.38642 2.46478
367 2 12.4707 12.6599 9.26182
368 2 12.3 13.2676 10.9497
369 2 13.6609 6.50725 12.7692
370 2 12.9974 6.44753 14.0061
371 2 11.7214 1.8159 2.01123
372 2 10.3972 1.04012 2.44141
373 2 0.933101 1.53405 0.668665
374 2 2.46024 1.0116 0.346627
375 2 8.21349 0.179981 7.393
376 2 8.68499 1.51973 6.60414
377 2 12.2366 11.2673 0.428866
378 2 13.7616 10.8458 0.0777981
379 2 13.8039 3.755 9.64436
380 2 13.3693 3.16775 11.0235
381 2 12.6383 3.37418 4.82458
382 2 11.5955 4.3866 4.29284
383 2 5.31393 10.4381 0.519013
384 2 5.30276 9.19483 14.8995
ITEM: TIMESTEP
400
ITEM: NUMBER OF ATOMS
384
ITEM: BOX BOUNDS pp pp pp
-1.7792508045011868e-01 1.5177925080450148e+01
-7.2874872329593998e-02 1.5072874872329617e+01
-1.0143935956222627e-01 1.5101439359562306e+01
ITEM: ATOMS id type x y z
1 1 4.44942 5.53982 12.682
2 1 14.8975 3.52914 14.0711
3 1 7.2675 10.4702 3.61014
4 1 1.73288 3.4509 4.38965
5 1 13.7052 9.67889 10.1077
6 1 9.46866 -0.0295355 14.9349
7 1 13.3734 9.3025 6.44242
8 1 3.50802 13.0203 7.91101
9 1 3.4569 5.96859 2.41872
10 1 5.54532 7.4997 2.04219
11 1 14.0646 6.82009 2.07053
12 1 0.587317 10.091 13.7129
13 1 -0.0619094 5.31684 4.73717
14 1 9.55591 6.39511 8.17914
15 1 12.2745 6.61963 4.36115
16 1 10.2769 2.8617 6.79055
17 1 4.45781 3.92213 10.6633
18 1 7.0251 10.4032 11.0598
19 1 7.92442 2.02165 14.4123
20 1 5.81103 13.3089 0.520785
21 1 -0.0305883 13.1859 9.80468
22 1 12.1103 2.00298 5.26955
23 1 10.7618 6.47668 13.4738
24 1 1.9383 7.82411 6.25299
25 1 10.7107 9.02758 5.76322
26 1 15.0699 8.03873 4.76294
27 1 1.68308 11.1475 4.40398
28 1 5.94285 0.598022 10.4721
29 1 12.096 7.71376 0.270587
30 1 2.09602 6.6623 12.0129
31 1 3.38814 5.56963 5.17109
32 1 7.58844 11.9574 7.81745
33 1 3.32026 3.50786 1.65373
34 1 3.17937 13.0298 0.18899
35 1 15.1766 4.98763 7.33417
36 1 10.7522 14.5596 7.38408
37 1 1.10765 14.3576 2.05345
38 1 5.9652 0.799252 13.2057
39 1 0.364878 9.65133 2.68251
40 1 12.3159 13.1215 12.7271
41 1 1.20915 11.814 8.08289
42 1 13.3011 13.6943 -0.0283074
43 1 15.0734 14.8725 4.35011
44 1 8.76722 12.743 11.8811
45 1 12.0085 5.98936 7.11439
46 1 9.81935 10.285 8.00876
47 1 10.3874 10.8178 12.667
48 1 8.55879 12.152 5.36186
49 1 3.71522 1.6607 14.1611
50 1 6.35555 13.3111 13.214
51 1 4.06999 6.03277 8.5255
52 1 11.2271 0.272258 12.5131
53 1 7.386 13.817 3.5394
54 1 4.60323 1.97946 3.49581
55 1 12.104 11.3016 8.66985
56 1 9.04184 10.1831 -0.0413414
57 1 2.20987 1.55024 8.33547
58 1 8.61945 5.29149 11.6612
59 1 0.938614 9.2231 8.47829
60 1 10.0593 10.4005 3.55737
61 1 11.832 3.92474 14.0699
62 1 10.2739 6.91204 10.5166
63 1 4.72447 9.88364 9.607
64 1 8.25243 7.84608 1.51069
65 1 14.3155 7.59242 7.97548
66 1 4.79242 14.4723 3.60671
67 1 5.76667 1.6437 6.59291
68 1 1.63219 0.167925 10.3628
69 1 11.4351 12.5032 1.65278
70 1 8.4192 3.96749 9.18062
71 1 -0.13219 12.4894 5.78894
72 1 5.29673 11.0349 7.277
73 1 0.733891 7.48566 14.2348
74 1 0.574989 4.28879 11.578
75 1 -0.0179778 1.09034 12.4846
76 1 12.4068 12.3879 6.01403
77 1 6.30256 0.788648 1.36538
78 1 5.83605 7.93565 7.41121
79 1 4.86665 4.10248 14.8805
80 1 14.3783 1.1915 0.467782
81 1 8.39801 1.08089 2.85483
82 1 10.1183 2.21854 10.3898
83 1 1.89215 4.2145 8.86174
84 1 12.3384 14.8237 3.89706
85 1 9.86416 4.68763 5.00694
86 1 8.2784 5.78399 14.919
87 1 2.65145 2.27377 11.5795
88 1 10.1926 14.5434 10.3384
89 1 14.7793 11.2254 0.747768
90 1 9.7649 3.10088 12.8149
91 1 7.75997 3.45185 3.6299
92 1 3.3124 12.5005 2.88266
93 1 13.0765 3.70037 7.75739
94 1 1.34468 7.62032 1.5891
95 1 13.3164 9.4571 12.7519
96 1 6.1572 2.79384 8.93217
97 1 5.78964 3.95251 5.35177
98 1 12.7426 2.26905 12.3792
99 1 8.75789 7.10366 5.80485
100 1 2.86062 8.04251 9.87024
101 1 4.39704 11.7675 11.7649
102 1 1.14882 12.0955 11.7575
103 1 6.39021 8.28114 4.79587
104 1 9.32716 9.40545 10.5531
105 1 8.0025 14.4757 8.68001
106 1 0.938618 14.0499 14.1819
107 1 7.01956 3.92197 1.23398
108 1 12.9024 6.69004 10.6358
109 1 6.9438 9.41543 13.4929
110 1 6.76578 6.76776 12.9464
111 1 3.71009 9.74733 5.28191
112 1 1.46438 1.12444 5.72823
113 1 8.69819 12.8569 1.12648
114 1 3.6233 14.9038 6.16099
115 1 10.7768 8.05159 2.59607
116 1 3.85897 14.071 10.2739
117 1 5.43598 11.1571 1.86175
118 1 3.15469 10.886 14.065
119 1 12.4222 2.83909 1.36829
120 1 12.6391 13.4657 10.0955
121 1 13.8627 6.60313 13.3188
122 1 10.8564 0.672592 2.1888
123 1 1.80437 1.50724 0.925446
124 1 8.2743 0.898164 6.15428
125 1 12.3721 10.2736 0.00260118
126 1 13.4602 4.17151 10.6672
127 1 13.0745 4.18007 3.88597
128 1 4.69372 9.37125 0.038627
129 2 4.40662 4.81105 11.9527
130 2 4.59901 5.10563 13.6015
131 2 14.438 4.31879 14.4773
132 2 15.114 4.20585 13.3928
133 2 7.1341 9.52917 4.06698
134 2 7.98832 10.4588 3.05367
135 2 1.01649 4.25256 4.37051
136 2 2.10624 3.0578 3.52531
137 2 14.6512 9.9982 10.1488
138 2 13.4954 9.79382 11.0985
139 2 10.0505 0.160958 0.649711
140 2 8.9063 0.793366 14.7615
141 2 13.7962 8.78248 7.16142
142 2 13.794 10.1417 6.55302
143 2 3.56828 13.7347 8.71418
144 2 3.44628 13.4572 7.03266
145 2 2.96555 5.20908 2.18028
146 2 3.40094 5.67143 3.32923
147 2 5.3433 8.12012 1.26929
148 2 4.78685 6.90258 2.24295
149 2 13.8526 7.33675 2.88717
150 2 15.0844 6.89865 2.07233
151 2 0.854872 8.97493 13.8998
152 2 0.13495 10.5929 14.4704
153 2 14.5843 4.66615 4.47134
154 2 15.1536 6.27544 4.22327
155 2 10.456 6.10297 7.59899
156 2 9.13986 6.76375 7.3946
157 2 11.9169 6.40096 5.33946
158 2 11.6337 7.07455 3.72236
159 2 10.3808 3.33237 7.6772
160 2 10.006 3.61604 6.2783
161 2 3.89722 3.1229 10.7363
162 2 5.25014 3.60845 10.037
163 2 7.65598 9.75368 10.7115
164 2 7.55071 11.1607 11.199
165 2 7.62729 2.53722 -0.0750713
166 2 7.05983 1.53432 14.0801
167 2 6.25433 13.2738 14.8738
168 2 4.81699 13.1528 0.447543
169 2 14.4559 13.483 9.9202
170 2 0.26291 12.8001 10.725
171 2 11.3019 2.15116 5.92165
172 2 12.2245 1.18792 4.83431
173 2 10.9717 6.42117 12.5309
174 2 11.2988 7.19693 14.0061
175 2 1.18631 7.64933 5.74643
176 2 1.7787 8.03508 7.08073
177 2 11.6702 9.17341 5.94457
178 2 10.5507 9.42783 4.93592
179 2 14.2808 8.39361 5.38196
180 2 15.1068 8.67031 3.89224
181 2 0.998025 11.6479 4.91884
182 2 2.41055 10.7233 4.96927
183 2 5.94548 1.3379 9.94281
184 2 4.94943 14.967 10.4808
185 2 12.2372 8.83636 0.228963
186 2 12.6691 7.48908 0.978703
187 2 2.34131 7.37925 11.4365
188 2 2.8832 6.16362 12.1968
189 2 2.79316 6.24046 5.46031
190 2 2.78487 4.83342 5.02852
191 2 7.6703 12.718 8.30733
192 2 7.89461 12.2696 6.86482
193 2 2.60851 2.97275 1.35074
194 2 3.83809 2.88265 2.0899
195 2 3.09851 12.1963 14.6817
196 2 2.84754 12.7322 1.06174
197 2 0.193127 4.98055 6.56538
198 2 -0.0652714 5.98885 7.51939
199 2 11.3823 14.9391 7.99902
200 2 11.351 14.3942 6.71686
201 2 2.13433 14.0172 2.34238
202 2 1.44218 0.0490423 1.48123
203 2 6.12677 15.0332 13.168
204 2 5.97108 0.684134 12.1462
205 2 1.25359 9.15832 2.41351
206 2 0.913544 10.0943 3.3136
207 2 11.7662 13.9662 12.8716
208 2 11.5675 12.4191 12.7547
209 2 2.13376 12.3123 8.04327
210 2 0.7922 12.1206 8.86875
211 2 13.8092 14.4864 -0.0755185
212 2 12.7816 13.3143 14.4352
213 2 13.9922 -0.0457444 4.15899
214 2 0.0688395 14.7364 3.42089
215 2 9.10005 13.2218 11.119
216 2 9.48438 11.9744 12.0577
217 2 12.4888 6.53376 7.79741
218 2 12.2503 4.9995 7.20058
219 2 9.03159 10.6627 7.7465