ITEM: TIMESTEP
0
ITEM: NUMBER OF ATOMS
384
ITEM: BOX BOUNDS pp pp pp
-3.1180958401302572e-01 1.5311809584013066e+01
-3.1180958401302572e-01 1.5311809584013066e+01
-3.1180958401302572e-01 1.5311809584013066e+01
ITEM: ATOMS id type x y z
1 1 4.57679 5.50123 13.6944
2 1 14.8875 3.66367 14.1079
3 1 8.20115 10.8513 3.91518
4 1 1.55859 4.11103 4.68534
5 1 14.0046 11.0534 10.4291
6 1 10.1562 -0.0244194 -0.0179537
7 1 13.1461 9.78511 5.92123
8 1 3.48566 13.6848 7.87681
9 1 3.32305 6.30373 3.20589
10 1 5.30735 8.37688 2.36991
11 1 13.7801 6.32188 1.70807
12 1 0.692367 10.1945 14.1186
13 1 15.0627 5.43363 4.6639
14 1 9.98456 5.97612 7.92121
15 1 12.4056 7.19481 3.96576
16 1 9.83562 2.64919 6.79506
17 1 4.60459 4.17249 11.4106
18 1 7.55062 10.3381 11.1669
19 1 8.27543 1.89543 14.4455
20 1 5.83253 14.0038 0.549654
21 1 -0.277952 13.5963 10.2649
22 1 12.6457 2.09652 6.28487
23 1 10.7129 7.40871 14.2399
24 1 2.2119 7.88472 6.40809
25 1 10.4542 9.69036 5.97773
26 1 -0.282536 8.22967 4.81222
27 1 1.6652 11.2607 4.20606
28 1 6.17365 -0.094545 10.725
29 1 12.1932 8.4542 0.381712
30 1 2.29814 6.67565 12.652
31 1 3.74006 5.65533 5.77839
32 1 7.64075 12.3667 7.75101
33 1 2.57949 3.81144 2.08856
34 1 3.31976 13.3432 0.0677147
35 1 -0.0967938 5.37115 7.46928
36 1 11.1426 14.5448 7.59235
37 1 1.26174 14.8074 2.57217
38 1 6.41618 0.335516 13.3898
39 1 0.207637 9.92258 2.18818
40 1 12.6731 13.1901 12.8323
41 1 1.29363 11.9761 7.9846
42 1 13.2286 14.8362 0.439531
43 1 -0.123887 15.1905 5.01064
44 1 8.80795 12.7708 12.0788
45 1 12.4172 6.75949 6.79319
46 1 9.49869 10.6014 8.40823
47 1 10.544 10.9934 13.3575
48 1 8.99001 12.8372 5.44675
49 1 4.04829 1.51716 14.6149
50 1 6.69928 13.1999 13.7041
51 1 4.43379 6.10378 9.26553
52 1 11.4216 -0.0969869 13.0672
53 1 8.10878 14.4288 3.40524
54 1 4.3962 2.37166 3.28729
55 1 12.1316 11.4523 8.45349
56 1 8.7458 10.8517 -0.213292
57 1 1.53862 1.7361 8.48855
58 1 8.69585 5.89847 11.616
59 1 1.22107 9.19196 8.49846
60 1 10.635 10.5731 3.14594
61 1 11.4957 4.51089 15.2148
62 1 10.9209 6.7156 10.446
63 1 4.94638 10.4223 10.3546
64 1 7.94749 8.55464 1.09697
65 1 14.5919 7.80968 8.4877
66 1 5.26248 14.7619 3.62401
67 1 5.62202 2.26942 6.97039
68 1 1.29568 -0.0251437 10.348
69 1 11.6689 12.7598 1.5126
70 1 8.10674 4.34492 9.29769
71 1 15.2574 12.5827 5.71394
72 1 5.13758 11.4238 7.95676
73 1 0.807368 7.59384 14.5622
74 1 1.07308 4.35508 11.6836
75 1 -0.103901 0.899318 12.6958
76 1 12.4336 12.7126 5.99741
77 1 6.5124 0.898083 1.44852
78 1 5.22926 7.74021 7.34722
79 1 4.69818 3.85809 0.25821
80 1 14.6318 1.53081 0.260033
81 1 8.7843 1.26425 2.88569
82 1 10.1715 2.86217 10.2074
83 1 1.97586 4.56417 8.94346
84 1 12.6683 15.2799 4.82665
85 1 10.1623 4.44247 4.67024
86 1 8.26116 6.29332 15.2182
87 1 2.75694 2.33071 12.3211
88 1 10.1168 15.0402 10.6766
89 1 0.0214213 11.8389 0.424274
90 1 9.92368 3.73613 12.9889
91 1 7.93039 3.8304 3.09944
92 1 3.45334 12.7245 2.72154
93 1 13.7442 3.34545 8.32257
94 1 1.06378 7.50528 1.70711
95 1 13.5608 9.51663 12.896
96 1 6.16563 2.34739 9.6158
97 1 6.00658 4.12469 4.96415
98 1 13.0409 2.11594 12.6389
99 1 9.44842 7.22402 5.61094
100 1 3.08802 8.31472 10.412
101 1 4.27645 12.564 12.0172
102 1 0.247817 12.7339 12.6695
103 1 6.92237 8.32243 4.80264
104 1 10.2096 9.4039 11.0142
105 1 8.10819 14.6608 9.11245
106 1 0.724807 14.5893 14.8093
107 1 7.38606 3.87893 0.612739
108 1 13.59 6.17467 11.3541
109 1 6.57455 9.82429 14.0409
110 1 6.72525 7.05567 13.1783
111 1 3.66994 10.3273 5.96103
112 1 1.66543 1.60839 5.77048
113 1 9.05834 13.0173 1.11863
114 1 4.11235 0.213829 6.02437
115 1 10.3679 8.11545 2.36753
116 1 3.8208 14.5044 10.4834
117 1 6.27696 11.8524 2.07137
118 1 3.1417 11.1769 14.1451
119 1 12.971 3.21476 1.56998
120 1 12.4061 13.5738 10.1924
121 1 14.0948 6.56232 13.8874
122 1 11.4172 0.689063 2.37021
123 1 1.65778 1.52802 1.12949
124 1 7.74882 0.714644 6.86752
125 1 13.0368 10.8806 0.0461404
126 1 14.1536 3.59273 10.8941
127 1 12.9937 3.74289 4.44237
128 1 4.93288 10.2326 0.481908
129 2 4.52916 4.87676 12.9369
130 2 4.69703 5.06241 14.547
131 2 14.6886 4.58995 14.3163
132 2 0.0945933 3.63697 13.6264
133 2 7.74221 10.0755 4.24889
134 2 8.99342 10.7228 3.34745
135 2 0.788771 4.72927 4.53377
136 2 1.81069 3.95163 3.77685
137 2 14.4008 11.9252 10.4575
138 2 13.9069 10.7269 11.3647
139 2 10.6725 0.201823 0.765773
140 2 9.47367 0.652849 -0.0632908
141 2 13.5922 9.97565 6.76473
142 2 13.2152 10.5455 5.32572
143 2 3.67781 14.0964 8.7488
144 2 3.53939 14.3835 7.27865
145 2 3.09567 5.45978 2.78243
146 2 3.60518 6.19337 4.09913
147 2 5.08995 9.05489 1.76222
148 2 4.54185 7.79795 2.5309
149 2 13.4381 6.67871 2.59019
150 2 14.7355 6.25337 1.79471
151 2 0.77524 9.18308 14.2443
152 2 0.388115 10.6288 14.9234
153 2 14.1894 4.91997 4.56536
154 2 14.9228 6.4107 4.60147
155 2 10.8762 5.93786 7.61697
156 2 9.58879 6.53361 7.20672
157 2 12.1014 7.06547 4.8105
158 2 11.5829 7.27566 3.48345
159 2 9.70669 3.06202 7.62541
160 2 9.96186 3.35305 6.0781
161 2 3.89127 3.51534 11.556
162 2 5.31618 3.63484 11.0911
163 2 8.36256 9.80951 10.99
164 2 7.91946 11.2623 11.3115
165 2 7.80256 2.56448 14.9346
166 2 7.58248 1.21916 14.1315
167 2 6.10462 13.5421 -0.242407
168 2 4.85977 13.825 0.528199
169 2 14.4101 13.8153 10.1623
170 2 -0.0704958 13.4422 11.1966
171 2 11.7088 2.1063 6.54679
172 2 12.6961 1.18401 5.89058
173 2 10.9921 7.5299 13.3514
174 2 11.2636 8.01166 14.7268
175 2 1.57728 7.89927 5.7134
176 2 1.87051 8.36741 7.16573
177 2 11.4302 9.71213 6.20698
178 2 10.3486 10.1292 5.1128
179 2 14.4149 8.445 5.04536
180 2 0.00164071 8.8165 4.03796
181 2 1.02838 11.8189 4.67407
182 2 2.36173 10.8675 4.79517
183 2 6.32838 0.734699 10.265
184 2 5.21972 -0.301306 10.6492
185 2 12.568 9.37229 0.310345
186 2 12.8634 7.95827 0.824663
187 2 2.56428 7.41349 12.0109
188 2 3.14156 6.4193 13.0935
189 2 3.16723 6.41343 5.9805
190 2 3.10221 4.98312 5.63197
191 2 7.73547 13.1577 8.33842
192 2 8.06104 12.6116 6.87934
193 2 1.75422 3.38105 1.7562
194 2 3.25148 3.1727 2.47226
195 2 3.15037 12.6412 14.9757
196 2 3.16776 12.9566 0.983888
197 2 0.0720948 5.37286 6.52711
198 2 -0.245356 6.34024 7.61737
199 2 11.6512 14.8569 8.35832
200 2 11.802 13.9131 7.23812
201 2 2.07792 14.3411 2.56175
202 2 1.50629 0.044002 2.08403
203 2 6.3968 14.9261 13.4491
204 2 6.20534 0.425411 12.4267
205 2 0.660795 9.1318 1.85703
206 2 0.694078 10.391 2.87312
207 2 12.3708 14.0972 13.0916
208 2 12.1841 12.5232 13.366
209 2 2.09163 12.5603 7.87369
210 2 0.901668 12.2269 8.80367
211 2 13.6981 0.109016 0.335681
212 2 13.4443 14.3386 15.279
213 2 14.5376 15.2076 4.93591
214 2 0.228484 14.9795 4.13145
215 2 9.24837 13.4527 11.622
216 2 9.52013 12.2417 12.5392
217 2 12.875 7.30125 7.44426
218 2 13.1287 6.09272 6.70831
219 2 8.70364 11.2231 8.31889
220 2 9.67729 10.2938 7.51515
221 2 10.4955 10.2933 12.7118
222 2 10.0325 10.7711 14.1408
223 2 9.87115 13.0955 5.5737
224 2 8.95145 12.0108 4.93614
225 2 4.74251 0.928236 14.2575
226 2 3.48888 1.81195 13.8977
227 2 7.56401 13.1017 13.1985
228 2 6.02622 12.6782 13.2435
229 2 3.65548 5.64787 8.88705
230 2 4.53028 5.65688 10.1121
231 2 10.7483 -0.0654962 13.7661
232 2 11.7812 0.808853 13.0779
233 2 8.36482 -0.291862 3.46612
234 2 8.34757 14.0066 4.25098
235 2 5.1094 1.81781 2.95108
236 2 4.6411 2.96006 4.03817
237 2 12.5339 11.0417 9.22128
238 2 11.1841 11.2095 8.49369
239 2 8.60742 10.312 0.576946
240 2 8.69537 11.7883 0.0583599
241 2 1.42282 1.68337 7.50469
242 2 1.60998 2.65673 8.73322
243 2 8.87953 5.11923 12.1645
244 2 8.03029 6.40716 12.1505
245 2 1.95332 8.95172 9.16853
246 2 1.28006 10.1574 8.3047
247 2 11.2632 11.2403 2.79611
248 2 10.7957 9.70539 2.72449
249 2 11.5653 5.40273 -0.288322
250 2 11.1896 4.32648 14.2564
251 2 10.4204 6.65681 9.62663
252 2 10.2607 6.46258 11.0571
253 2 5.87632 10.1769 10.5904
254 2 4.94364 10.8143 9.46912
255 2 7.91802 7.6928 0.604333
256 2 7.17835 8.74025 1.63464
257 2 14.2008 7.92642 9.35992
258 2 -0.267797 8.44072 8.55252
259 2 6.16366 14.3915 3.8125
260 2 4.75946 14.0077 3.26281
261 2 6.35085 1.60272 6.90857
262 2 4.84301 1.75402 6.76165
263 2 1.34137 0.662419 9.62968
264 2 0.817817 14.7755 10.0578
265 2 10.8342 13.0339 1.10914
266 2 12.2496 13.5788 1.43103
267 2 7.99168 4.93257 10.0429
268 2 8.59208 4.87508 8.55834
269 2 -0.0863874 13.5026 5.64494
270 2 0.00602987 12.1735 6.56287
271 2 6.0476 11.6847 7.84187
272 2 4.65027 12.2574 7.8746
273 2 -0.10786 7.21382 14.4417
274 2 1.40859 7.20909 13.8607
275 2 1.10879 5.19843 12.1297
276 2 0.142322 4.18446 11.4107
277 2 0.192301 0.569522 11.8253
278 2 0.262058 0.216297 13.3227
279 2 13.325 12.966 5.76917
280 2 12.474 12.1815 6.79075
281 2 6.96454 1.33987 0.72514
282 2 6.22808 -0.0168944 1.14781
283 2 5.28424 6.95392 7.95734
284 2 5.69738 8.44349 7.79401
285 2 4.59695 2.96295 -0.156096
286 2 4.05776 3.8329 1.0606
287 2 14.2623 2.20361 0.861912
288 2 14.7961 2.02476 15.1013
289 2 7.90736 0.984376 2.41964
290 2 8.42535 2.08554 3.23522
291 2 9.33834 3.30929 9.83257
292 2 10.1754 1.88055 10.1119
293 2 1.75381 4.52695 9.90946
294 2 1.11552 4.78978 8.54253
295 2 12.2645 0.0873025 4.07993
296 2 12.0334 14.6435 5.15054
297 2 9.97133 5.30379 5.02216
298 2 9.51596 4.30903 3.95105
299 2 9.11176 6.41377 14.7882
300 2 7.57568 6.54 14.599
301 2 2.07189 2.92609 11.9449
302 2 2.69894 1.52435 11.845
303 2 10.8501 14.3815 10.4642
304 2 10.5118 -0.206863 11.478
305 2 0.274248 12.7719 0.61942
306 2 0.108425 11.2293 1.22179
307 2 9.70727 2.84376 13.3266
308 2 10.3129 3.49932 12.1129
309 2 7.16744 3.93944 3.6373
310 2 7.68964 3.77425 2.12389
311 2 2.7812 12.2345 3.34142
312 2 4.17512 12.108 2.65722
313 2 13.4252 2.63657 7.76521
314 2 14.4885 3.85196 7.85505
315 2 1.16553 7.50623 0.684607
316 2 1.80702 6.9489 2.01705
317 2 14.4305 9.58843 13.243
318 2 13.0187 10.0336 13.4694
319 2 5.70123 2.57075 8.68482
320 2 6.80813 3.05178 9.52933
321 2 5.35787 4.80808 5.12533
322 2 5.96938 3.53575 5.71789
323 2 13.0854 2.74416 13.3668
324 2 13.871 1.59988 12.7008
325 2 8.54415 7.16809 5.28465
326 2 9.76316 8.11779 5.62097
327 2 3.5805 7.58031 10.0651
328 2 3.76188 9.05652 10.3377
329 2 4.55808 11.8882 11.3243
330 2 3.56374 12.075 12.5347
331 2 0.334551 11.7965 12.6005
332 2 0.24849 12.8839 13.5924
333 2 6.35726 8.22802 5.65351
334 2 6.38531 8.12785 4.02112
335 2 10.214 9.5859 10.0692
336 2 10.6644 8.57403 11.1276
337 2 8.95214 14.8857 9.64428
338 2 7.3584 14.7538 9.70982
339 2 0.591563 15.0693 0.0182509
340 2 1.70203 14.3696 14.7724
341 2 6.4741 3.89198 0.306924
342 2 7.8908 4.74294 0.474307
343 2 13.7745 5.25403 11.174
344 2 12.6407 6.3597 11.1641
345 2 6.61181 10.3071 13.1711
346 2 7.38294 10.2018 14.4287
347 2 5.92965 6.53312 13.3142
348 2 6.65131 8.00804 13.4902
349 2 4.1508 10.9057 6.58172
350 2 3.72612 9.43762 6.27968
351 2 0.960879 1.05271 5.33877
352 2 1.48012 2.49213 5.40543
353 2 8.71011 13.4532 1.93204
354 2 8.99593 13.78 0.520382
355 2 3.28533 0.709593 5.89467
356 2 4.52263 -0.105961 5.1872
357 2 10.8957 8.12501 1.5533
358 2 9.392 8.09909 2.00114
359 2 2.85608 14.8006 10.6062
360 2 3.90293 13.7417 11.0449
361 2 6.48734 12.6937 1.54518
362 2 7.04029 11.6822 2.67807
363 2 2.24681 10.7375 14.3261
364 2 3.668 10.6767 14.8241
365 2 12.3482 3.69431 0.972113
366 2 13.2921 3.83378 2.19605
367 2 12.5073 12.8061 9.60602
368 2 12.5354 13.311 11.1419
369 2 13.9506 6.55755 12.8999
370 2 13.4462 7.1125 14.3857
371 2 11.8334 1.45816 2.05064
372 2 10.4376 0.894116 2.52875
373 2 0.844146 1.54638 0.605455
374 2 2.39804 1.38307 0.478242
375 2 7.77884 0.12269 7.66547
376 2 8.60235 1.23456 6.91956
377 2 12.4122 11.5105 0.551261
378 2 13.9301 11.2794 0.187093
379 2 13.8259 3.47873 9.96028
380 2 13.5184 3.1733 11.5056
381 2 12.9666 3.11167 5.2382
382 2 12.0906 4.05916 4.29522
383 2 5.48443 10.7696 1.07083
384 2 5.47524 10.05 -0.286949
ITEM: TIMESTEP
200
ITEM: NUMBER OF ATOMS
384
ITEM: BOX BOUNDS pp pp pp
-2.1868351273538700e-01 1.5218683512735430e+01
-2.1868351273538700e-01 1.5218683512735430e+01
-2.1868351273538700e-01 1.5218683512735430e+01
ITEM: ATOMS id type x y z
1 1 4.50805 5.59191 13.2116
2 1 14.4965 3.93243 13.9457
3 1 7.58858 10.6577 3.77576
4 1 1.69919 3.78253 4.58651
5 1 13.6484 10.1682 10.3162
6 1 9.9715 0.245298 0.000675774
7 1 13.3537 9.66204 6.08856
8 1 3.34773 13.5674 7.6035
9 1 3.14908 6.46496 2.93973
10 1 5.48608 7.89575 2.52518
11 1 13.8162 6.56419 1.83826
12 1 0.569582 10.1015 13.805
13 1 14.9586 5.39119 4.87478
14 1 9.85976 5.97895 7.84719
15 1 12.2352 7.01279 4.03007
16 1 9.9375 2.76448 6.74681
17 1 4.7344 3.99321 11.3031
18 1 7.39061 10.4347 11.3215
19 1 8.35872 1.91907 14.3469
20 1 5.83542 13.8891 0.561195
21 1 -0.197447 13.3006 10.0592
22 1 12.5156 1.84961 6.24868
23 1 10.5848 7.08819 14.1307
24 1 1.96309 7.82252 6.2802
25 1 10.4109 9.18928 5.77991
26 1 15.155 8.17183 4.695
27 1 1.76092 11.454 4.40581
28 1 5.91832 0.252001 10.616
29 1 12.2135 8.03268 0.265285
30 1 2.28192 6.53705 12.3429
31 1 3.52659 5.77607 5.31285
32 1 7.70713 11.8608 7.87211
33 1 3.16081 3.59102 2.17905
34 1 3.04598 13.276 0.143248
35 1 -0.0523851 5.28455 7.64999
36 1 10.6381 14.6255 7.33798
37 1 1.27179 14.4205 2.27157
38 1 6.09063 0.45159 13.2969
39 1 0.441567 9.8959 2.72392
40 1 12.1931 13.0635 12.5454
41 1 0.961792 12.2533 8.01888
42 1 13.5279 14.2409 0.181652
43 1 -0.0613375 14.9972 4.52235
44 1 8.54597 12.7546 11.7837
45 1 12.4637 6.28017 6.81164
46 1 9.75747 10.2425 8.21515
47 1 10.425 11.0505 12.82
48 1 8.90591 12.3883 5.35988
49 1 3.89086 1.62448 14.2237
50 1 6.42183 13.242 13.4632
51 1 4.18229 5.97682 9.26529
52 1 11.274 -0.0542121 13.0491
53 1 7.49905 14.1903 3.50455
54 1 4.66778 2.09886 3.56978
55 1 12.2418 11.2503 8.43517
56 1 8.78954 10.5264 -0.193395
57 1 1.59172 1.74948 8.34187
58 1 8.49414 5.57505 11.6092
59 1 1.16192 9.15825 8.54847
60 1 10.4352 10.4521 3.40283
61 1 11.4734 4.3459 14.8378
62 1 10.528 6.90487 10.5461
63 1 4.88031 10.2343 10.0491
64 1 8.01912 8.07606 1.32738
65 1 14.2583 7.52922 8.58726
66 1 4.89495 14.7524 3.68635
67 1 5.77218 1.90879 6.81763
68 1 1.34294 0.315218 10.3793
69 1 11.4957 12.3977 1.72927
70 1 8.27726 4.28316 9.35539
71 1 15.175 12.5278 5.65996
72 1 4.97523 11.3415 7.62803
73 1 0.913883 7.4379 14.3052
74 1 1.1311 4.25241 11.8411
75 1 -0.127208 0.602676 12.6976
76 1 12.4089 12.5212 5.97078
77 1 6.23482 1.08079 1.40964
78 1 5.50213 8.09902 7.02839
79 1 4.52452 3.96513 -0.206764
80 1 14.5523 1.79725 0.3242
81 1 8.57012 1.32641 2.6571
82 1 10.1073 2.56833 10.281
83 1 1.84186 4.39423 8.854
84 1 12.6459 15.1072 4.24246
85 1 10.2017 4.75957 4.8602
86 1 8.35878 6.32627 14.9606
87 1 2.78312 2.2047 12.0636
88 1 9.98998 14.7156 10.8587
89 1 15.1566 11.3042 0.708223
90 1 9.69222 3.57196 12.7548
91 1 8.02008 3.79701 3.59997
92 1 3.34091 12.6628 2.72271
93 1 13.4763 3.56375 8.18291
94 1 0.697316 7.50188 1.72813
95 1 13.3447 10.0445 12.7857
96 1 6.20979 2.77861 9.23021
97 1 5.75828 3.86471 5.17238
98 1 13.0194 1.82711 12.6558
99 1 8.93906 7.02345 5.45997
100 1 3.12626 8.17669 10.2602
101 1 4.45006 12.2595 12.0242
102 1 0.593377 12.6845 12.4274
103 1 6.77544 8.42132 4.755
104 1 9.72912 9.46949 10.8384
105 1 7.91604 14.5084 8.9678
106 1 0.793042 14.3879 14.4975
107 1 7.35596 3.95564 0.322824
108 1 13.3264 6.65164 10.8754
109 1 6.64635 9.57844 13.6701
110 1 6.74164 6.86613 13.1331
111 1 3.56974 9.84116 5.59826
112 1 1.54965 1.17772 5.69104
113 1 9.12982 13.2405 1.03955
114 1 3.9484 0.153151 6.10731
115 1 10.4326 8.0623 2.30959
116 1 3.74741 14.2815 10.3171
117 1 5.67029 11.6921 2.22986
118 1 3.22502 11.0908 14.1944
119 1 12.2964 2.96622 1.55949
120 1 12.464 13.655 10.0287
121 1 13.8301 6.51681 13.6046
122 1 11.2251 0.867171 2.47821
123 1 1.76588 1.36709 1.05804
124 1 8.05089 0.613598 6.72255
125 1 12.6944 10.6835 -0.155617
126 1 13.9988 3.74745 10.7781
127 1 12.6007 4.09299 4.02761
128 1 4.93942 9.67302 0.418598
129 2 4.86785 4.89238 12.5821
130 2 4.46896 5.16269 14.0419
131 2 14.4353 4.79407 13.9027
132 2 -0.197247 3.90448 13.3816
133 2 7.21592 9.71014 4.40825
134 2 8.32364 10.4057 3.31022
135 2 0.91732 4.36695 4.6424
136 2 2.16885 3.72258 3.66822
137 2 14.409 10.6025 10.025
138 2 13.4393 10.2088 11.4875
139 2 10.4424 0.699992 0.914312
140 2 9.26742 0.738738 15.1692
141 2 13.3089 9.63206 7.08653
142 2 13.1951 10.4631 5.74344
143 2 3.59285 13.8467 8.61964
144 2 3.62247 14.1603 6.98267
145 2 3.07021 5.79906 2.3356
146 2 3.27622 6.05716 3.75405
147 2 5.1118 8.5081 1.88644
148 2 4.66662 7.29946 2.4902
149 2 13.4271 6.62082 2.66638
150 2 14.7075 6.92799 2.06952
151 2 0.665717 9.06248 13.879
152 2 0.497698 10.1066 14.7949
153 2 14.0262 5.02106 4.50769
154 2 14.9688 6.37956 4.63128
155 2 10.6875 6.25625 7.24035
156 2 9.2711 6.4679 7.3894
157 2 12.2661 6.99783 4.90932
158 2 11.4923 7.67389 3.70588
159 2 9.81732 3.03788 7.65232
160 2 10.0398 3.63491 6.15197
161 2 4.08456 3.21066 11.2323
162 2 5.10902 3.74252 10.3736
163 2 8.2006 9.85922 11.2037
164 2 7.59087 11.4077 11.2719
165 2 8.21469 2.51833 15.1049
166 2 7.53447 1.74159 13.828
167 2 6.48229 13.823 15.1943
168 2 4.86303 14.0685 0.461712
169 2 14.2505 13.4538 9.87955
170 2 -0.06856 13.1867 10.9118
171 2 11.4215 2.06798 6.35751
172 2 12.7165 0.998137 5.62487
173 2 10.8762 7.46616 13.1678
174 2 11.178 7.44833 14.7386
175 2 1.16182 7.89209 5.68491
176 2 1.68894 8.26615 7.08212
177 2 11.4434 9.01598 5.96855
178 2 10.1617 9.78558 5.02276
179 2 14.5155 8.6714 5.07245
180 2 -0.0657474 8.74973 3.84615
181 2 1.14257 11.7759 5.03166
182 2 2.39078 10.9129 4.91188
183 2 6.11199 0.955 10.2352
184 2 5.05937 -0.137291 10.2859
185 2 12.6252 8.86783 0.0149028
186 2 13.0623 7.44083 0.89189
187 2 2.5502 6.98382 11.5573
188 2 3.02146 6.17837 12.7804
189 2 2.86988 6.29367 5.77235
190 2 3.02122 4.87901 5.35263
191 2 7.40626 12.9287 8.10434
192 2 8.32719 11.8693 6.92713
193 2 2.62223 2.87272 1.76411
194 2 3.71021 2.96753 2.93078
195 2 2.92127 12.2963 15.009
196 2 2.90354 13.0397 1.30077
197 2 -0.177169 5.41972 6.31893
198 2 15.0329 6.25833 8.07791
199 2 11.4651 15.2043 7.36919
200 2 11.1387 13.8742 7.20708
201 2 2.16603 14.0844 2.62287
202 2 1.34097 -0.159514 1.72991
203 2 6.18125 14.9145 13.3639
204 2 6.11262 0.550943 12.3036
205 2 0.968459 9.12169 2.48951
206 2 0.896354 10.6011 3.29012
207 2 11.7559 13.975 12.6058
208 2 11.6226 12.2515 12.5994
209 2 1.92096 12.9764 7.97235
210 2 0.351516 12.7498 8.65336
211 2 13.4518 15.2044 0.313694
212 2 13.3959 14.2948 14.6674
213 2 14.5841 -0.138983 4.2906
214 2 0.394283 14.8059 3.75506
215 2 8.91631 13.6604 11.4797
216 2 9.16045 12.2107 12.2149
217 2 13.1721 6.9085 7.35594
218 2 12.9771 5.42707 6.96355
219 2 8.82588 10.7311 8.07691
220 2 9.77941 9.61595 7.38538
221 2 10.4395 10.3026 12.1389
222 2 9.93409 10.8844 13.6531
223 2 9.77737 12.0963 5.2414
224 2 8.19948 11.4384 5.09642
225 2 4.67613 1.10409 13.9706
226 2 3.31741 1.76035 13.4714
227 2 7.3207 13.0548 13.1469
228 2 5.68081 12.7327 12.8021
229 2 3.43581 5.31699 9.24008
230 2 4.55004 5.39533 9.92263
231 2 10.9344 0.297706 13.9777
232 2 12.0397 0.739467 12.8434
233 2 8.00363 15.1199 3.50454
234 2 8.02002 13.7707 4.35939
235 2 5.15662 1.67778 2.86857
236 2 5.39255 2.57648 3.82004
237 2 12.5522 10.8741 9.30061
238 2 11.3408 10.8866 8.24739
239 2 8.36742 9.84455 0.471961
240 2 8.74862 11.5491 0.211735
241 2 1.45639 1.59139 7.4286
242 2 1.80392 2.65083 8.33542
243 2 8.89485 4.91433 12.0737
244 2 7.80625 5.99411 12.1481
245 2 1.68532 8.83318 9.25327
246 2 1.17653 10.1395 8.45153
247 2 10.7194 11.2654 2.99021
248 2 10.3802 9.54604 2.85918
249 2 11.0039 5.17521 14.8866
250 2 10.9546 4.04503 13.981
251 2 10.679 6.34899 9.85269
252 2 9.60859 6.43382 10.8824
253 2 5.80603 10.191 10.3171
254 2 4.88771 10.8469 9.26973
255 2 8.07993 7.22649 0.530507
256 2 7.19032 7.89229 1.88746
257 2 13.9241 7.08683 9.38209
258 2 14.9689 8.13143 8.94537
259 2 5.86895 14.4491 3.82372
260 2 4.57122 13.8655 3.32523
261 2 6.6709 1.38971 6.76228
262 2 4.92513 1.27538 6.61516
263 2 1.43902 0.893177 9.46529
264 2 0.670719 15.0305 10.2091
265 2 10.7805 13.0116 1.34694
266 2 12.2751 12.9608 1.52058
267 2 8.414 4.73311 10.1737
268 2 8.7139 4.73314 8.67787
269 2 15.1665 13.4826 5.39808
270 2 0.231357 12.6048 6.37918
271 2 5.97731 11.4805 7.59548
272 2 4.60667 12.1737 7.50288
273 2 0.0857911 7.01778 14.3826
274 2 1.18147 6.91946 13.5475
275 2 1.4021 5.19312 11.8631
276 2 0.379677 4.33738 11.1586
277 2 0.538869 0.522178 11.914
278 2 0.351723 0.287208 13.4514
279 2 13.3692 12.5387 5.84085
280 2 12.3936 12.1675 6.87334
281 2 6.08076 1.53284 0.671633
282 2 5.96464 0.212698 1.32185
283 2 5.25204 7.21855 7.48363
284 2 5.24637 8.80811 7.50102
285 2 4.38195 2.94751 14.6654
286 2 3.99169 4.10406 0.633497
287 2 13.9431 2.21908 0.913439
288 2 14.6472 2.40536 14.9523
289 2 7.72661 1.31343 2.03747
290 2 8.51834 2.09053 3.17476
291 2 9.56695 3.07823 9.61413
292 2 10.3493 1.5393 10.1577
293 2 1.49327 4.32904 9.92643
294 2 1.06269 5.01445 8.53537
295 2 11.9296 0.0896784 3.48013
296 2 12.2875 14.3514 4.65971
297 2 9.94516 5.76263 4.94474
298 2 9.41397 4.38215 4.29999
299 2 9.30017 6.83596 14.5991
300 2 7.56482 6.35909 14.1485
301 2 2.11125 3.00892 11.9144
302 2 2.53795 1.55568 11.4549
303 2 10.8448 14.6403 10.2317
304 2 10.4489 15.1737 11.5528
305 2 -0.186117 12.3256 0.844453
306 2 0.0764058 10.774 1.53211
307 2 9.38078 2.87331 13.308
308 2 10.0484 3.04441 12.035
309 2 7.25984 4.03255 4.1012
310 2 7.92363 4.31555 2.72057
311 2 2.65722 12.1655 3.29255
312 2 4.23531 12.2041 2.55791
313 2 13.3386 2.72446 7.70748
314 2 14.2811 3.93584 7.91844
315 2 1.01421 7.40882 0.75423
316 2 1.48085 7.18536 2.35039
317 2 14.384 10.0225 13.1194
318 2 12.7215 10.3812 13.4638
319 2 5.95909 2.4589 8.4246
320 2 7.05923 3.27369 9.27001
321 2 4.93231 4.37637 5.20037
322 2 5.77485 3.15232 5.90424
323 2 12.9772 2.41046 13.3865
324 2 13.8517 1.38841 12.8807
325 2 8.23539 7.34605 4.91909
326 2 9.26023 7.84258 5.66158
327 2 3.7763 7.30961 9.82531
328 2 3.86233 8.86863 10.2813
329 2 4.52713 11.5433 11.2464
330 2 4.10158 11.8413 12.8857
331 2 0.330263 11.8248 13.0072
332 2 0.56642 13.3995 13.0177
333 2 6.2377 8.36164 5.52288
334 2 6.32501 8.23573 4.0625
335 2 9.72214 9.95348 9.86665
336 2 10.2135 8.64735 10.522
337 2 8.74136 14.887 9.54096
338 2 7.05247 14.7231 9.47166
339 2 0.128019 14.5322 -0.159007
340 2 1.74742 13.9571 14.7785
341 2 6.29143 4.17809 0.463974
342 2 7.67455 4.79382 0.0455203
343 2 13.5887 5.69999 10.7697
344 2 12.2669 6.70912 10.8871
345 2 6.81838 10.1149 12.7969
346 2 7.54933 9.8218 14.103
347 2 5.85794 6.41997 13.1372
348 2 6.76002 7.81585 13.2964
349 2 3.64674 10.3922 6.41128
350 2 2.87947 9.13983 5.80004
351 2 0.981649 0.503493 5.23843
352 2 1.3691 2.16038 5.14894
353 2 8.6605 13.2618 1.90197
354 2 9.47526 14.1041 0.713081
355 2 3.01754 0.53034 5.93362
356 2 4.4088 15.1765 5.25017
357 2 11.1541 7.9894 1.45705
358 2 9.55738 7.95112 1.93093
359 2 2.90686 14.7627 10.3361
360 2 3.7715 13.4687 10.9813
361 2 5.82935 12.5899 1.82232
362 2 6.44653 11.5007 2.90474
363 2 2.54267 10.435 13.882
364 2 3.82057 10.3916 14.8458
365 2 11.8377 3.5652 0.873711
366 2 12.3383 3.38625 2.34715
367 2 12.3211 12.9965 9.19232
368 2 12.1302 13.3928 10.9976
369 2 13.6497 6.7937 12.8803
370 2 13.0063 6.6776 14.0023
371 2 11.5305 1.88195 2.27319
372 2 10.2732 1.1394 2.65109
373 2 0.83583 1.60054 0.712052
374 2 2.18604 1.01731 0.312199
375 2 8.17703 -0.0606952 7.44421
376 2 8.87605 1.27095 6.66163
377 2 12.1988 11.1789 0.458683
378 2 13.7612 10.8045 0.165745
379 2 13.8677 3.5877 9.70262
380 2 13.5482 3.10573 11.1783
381 2 12.7047 3.33872 4.55822
382 2 11.5959 4.56389 4.23627
383 2 5.3631 10.398 0.745491
384 2 5.39731 9.43948 15.0729
ITEM: TIMESTEP
400
ITEM: NUMBER OF ATOMS
384
ITEM: BOX BOUNDS pp pp pp
-1.3021218416963443e-01 1.5130212184169675e+01
-1.3021218416963443e-01 1.5130212184169675e+01
-1.3021218416963443e-01 1.5130212184169675e+01
ITEM: ATOMS id type x y z
1 1 4.5502 5.47605 12.5313
2 1 14.6381 3.8652 14.091
3 1 7.3036 10.7865 3.45983
4 1 1.63504 3.53888 4.44603
5 1 13.5417 9.59566 9.90204
6 1 9.49694 0.00268038 15.0374
7 1 13.3302 9.79798 6.40688
8 1 3.50098 12.9878 7.90797
9 1 3.40532 6.0577 2.45223
10 1 5.51953 7.48219 2.13977
11 1 13.8268 6.67645 1.99179
12 1 0.620832 10.1237 13.9995
13 1 15.1173 5.22855 4.86882
14 1 9.61429 6.51077 8.09058
15 1 12.2702 6.84618 4.5041
16 1 10.2504 2.65172 6.76947
17 1 4.54806 3.76134 10.5736
18 1 6.84675 10.4861 11.164
19 1 7.91645 2.05413 14.3796
20 1 5.79668 13.5271 0.478616
21 1 -0.110436 13.3485 10.047
22 1 12.2788 1.97764 5.66337
23 1 10.7674 6.4607 13.4631
24 1 2.06638 7.99992 6.43436
25 1 10.7517 8.97709 5.67478
26 1 15.0482 7.94751 4.77447
27 1 1.63985 11.252 4.50002
28 1 5.97076 0.572602 10.3568
29 1 12.2882 7.86178 0.118942
30 1 2.1396 6.47675 12.0737
31 1 3.29753 5.65887 5.28668
32 1 7.4742 11.9507 7.79721
33 1 3.25525 3.41617 1.82616
34 1 3.27072 12.9398 -0.0129483
35 1 -0.0185833 4.92624 7.4869
36 1 10.5485 14.693 7.30516
37 1 0.974365 14.257 1.80268
38 1 5.90084 0.950055 13.0597
39 1 0.370701 9.71509 2.8572
40 1 12.2671 12.9792 12.3834
41 1 1.11029 11.9409 8.11551
42 1 13.4848 13.8953 15.0873
43 1 15.0176 14.8568 4.09592
44 1 8.41052 12.7978 11.9151
45 1 11.9841 5.95489 7.111
46 1 9.66639 10.3764 7.98057
47 1 10.1044 11.0132 12.8087
48 1 8.58628 12.3425 5.36779
49 1 3.67095 1.69951 13.98
50 1 6.13156 13.456 13.2112
51 1 4.07744 6.14504 8.69403
52 1 11.1924 0.106686 12.8868
53 1 7.37251 13.948 3.52504
54 1 4.62432 2.14961 3.7332
55 1 12.1129 11.255 8.48395
56 1 8.87062 10.2285 -0.00634802
57 1 2.06401 1.46076 8.27811
58 1 8.4596 5.26977 11.6822
59 1 0.67022 9.49276 8.80207
60 1 10.1219 10.5924 3.65536
61 1 11.569 3.92341 14.369
62 1 10.0604 7.06517 10.4815
63 1 4.61455 10.087 9.70335
64 1 8.19993 8.07738 1.48011
65 1 14.0283 7.26977 8.09208
66 1 4.88483 14.7219 3.70911
67 1 5.78425 1.77206 6.49854
68 1 1.46985 0.0967368 10.2801
69 1 11.2429 12.5903 1.85626
70 1 8.8308 3.95047 9.23157
71 1 15.0406 12.5753 5.743
72 1 5.01646 11.0797 7.25174
73 1 0.775706 7.57072 14.1858
74 1 0.535732 4.18245 11.5812
75 1 -0.125361 0.722269 12.6321
76 1 12.3522 12.6966 5.94617
77 1 6.31052 1.01453 1.08745
78 1 5.56742 8.07142 7.51483
79 1 4.73038 4.03932 14.9833
80 1 14.5294 1.67756 0.648059
81 1 8.21901 1.2571 3.03908
82 1 10.2985 2.08666 10.5316
83 1 2.0681 4.18479 8.8144
84 1 12.3057 14.9784 4.30668
85 1 9.73917 4.57339 4.95726
86 1 8.33944 6.15624 14.8233
87 1 2.60954 2.18726 11.55
88 1 10.1251 14.5132 10.667
89 1 14.8174 11.3959 0.990678
90 1 9.71083 3.20771 12.7639
91 1 7.63171 3.71819 3.44471
92 1 3.14689 12.7435 2.74617
93 1 13.1236 3.72686 7.92332
94 1 1.241 7.67143 1.66102
95 1 13.2282 9.81367 12.6706
96 1 6.46393 2.76942 8.91135
97 1 6.01294 4.42864 5.58741
98 1 12.7892 2.11709 12.5159
99 1 8.75963 7.19024 5.74462
100 1 2.84129 8.16116 9.9375
101 1 4.27942 12.1134 11.7499
102 1 1.04117 12.2273 12.1387
103 1 6.46644 8.36983 4.69233
104 1 9.23496 9.54183 10.5868
105 1 7.66867 14.3834 8.61629
106 1 1.04461 14.0666 14.1455
107 1 7.04881 4.02191 1.04997
108 1 12.5341 6.51563 11.0575
109 1 6.97953 9.45263 13.6212
110 1 6.70662 6.95031 12.7512
111 1 3.83966 9.71629 5.05085
112 1 1.36382 1.03932 5.63463
113 1 8.75936 13.0213 1.26939
114 1 3.63042 15.0571 6.34683
115 1 10.7887 8.23769 2.52304
116 1 3.8866 14.1957 10.181
117 1 5.23768 11.3725 1.75336
118 1 3.20335 10.8409 13.969
119 1 12.194 2.96715 1.75583
120 1 12.3601 13.4761 9.83881
121 1 13.7963 6.64395 13.3718
122 1 10.7541 0.673051 2.43521
123 1 1.80791 1.52777 0.894684
124 1 8.1778 0.753064 5.98529
125 1 12.3514 10.4644 0.193594
126 1 13.3263 4.04609 10.6175
127 1 12.9283 4.02279 4.38929
128 1 4.72957 9.43632 0.12215
129 2 4.54412 4.68717 11.9105
130 2 4.52843 5.03052 13.4498
131 2 14.0768 4.67599 14.3678
132 2 -0.120997 4.35357 13.3444
133 2 7.25417 9.85385 3.91688
134 2 7.96604 10.7672 2.8569
135 2 1.04229 4.27503 4.29472
136 2 2.16945 3.27169 3.61647
137 2 14.6302 9.63136 9.76631
138 2 13.2965 9.49141 10.9084
139 2 10.2133 0.217876 0.569763
140 2 8.92359 0.737956 14.8184
141 2 13.4748 10.0153 7.21656
142 2 13.5599 10.5513 5.79924
143 2 3.6188 13.7165 8.6845
144 2 3.46219 13.4469 7.07598
145 2 3.18904 5.15524 2.29013
146 2 3.27891 5.88911 3.32667
147 2 5.20915 8.21155 1.53937
148 2 4.73787 6.92538 2.3317
149 2 13.4942 6.88635 2.91712
150 2 14.8388 6.6979 2.16441
151 2 0.856157 8.97498 13.9987
152 2 0.0824517 10.5146 14.6934
153 2 14.3731 4.61597 4.56731
154 2 15.1069 6.22331 4.45583
155 2 10.5028 6.0285 7.49403
156 2 8.99864 6.86563 7.41942
157 2 12.0327 6.60532 5.49455
158 2 11.6002 7.30568 4.02497
159 2 9.97156 2.8469 7.59507
160 2 9.88123 3.52618 6.28558
161 2 4.00733 3.02367 10.8249
162 2 5.3505 3.54701 10.0796
163 2 7.41197 9.92168 10.7829
164 2 7.45544 11.3106 11.2989
165 2 7.6967 2.61334 15.0125
166 2 7.13596 1.71598 14.0206
167 2 6.1946 13.3218 14.8283
168 2 4.7761 13.5228 0.366159
169 2 14.1942 13.5193 10.1015
170 2 0.16819 12.9439 11.1485
171 2 11.5395 1.95575 6.28855
172 2 12.4687 1.2024 5.24324
173 2 11.2097 6.1632 12.652
174 2 11.2394 6.91112 14.1448
175 2 1.31629 7.83168 5.84286
176 2 1.6778 8.13284 7.27721
177 2 11.6958 8.99048 6.11093
178 2 10.5577 9.48717 4.82049
179 2 14.2155 8.06441 5.17423
180 2 -0.093475 8.52705 3.8781
181 2 0.965476 11.7057 5.04694
182 2 2.32635 10.6761 4.89088
183 2 5.9513 1.37675 9.76537
184 2 5.0908 -0.127644 10.2136
185 2 12.3457 9.05353 -0.0166174
186 2 12.8203 7.53456 0.913182
187 2 2.3391 7.18568 11.4988
188 2 2.95397 5.876 12.2109
189 2 2.79113 6.34518 5.77959
190 2 2.86002 4.81294 5.03464
191 2 7.31885 12.6794 8.46125
192 2 7.69814 12.4136 6.87887
193 2 2.61395 2.91295 1.32893
194 2 3.83789 2.70719 2.12655
195 2 3.18283 12.1498 14.6511
196 2 2.92467 12.6986 0.85348
197 2 0.104414 5.18862 6.63881
198 2 -0.0716822 5.8795 7.74404
199 2 11.0982 14.7528 8.09476
200 2 11.2271 14.1296 6.75364
201 2 1.84347 13.7744 2.02609
202 2 1.39489 15.0739 1.27917
203 2 5.83845 0.0138696 13.2816
204 2 5.8203 0.754746 11.9934
205 2 1.15248 9.1863 2.43048
206 2 0.981785 10.3718 3.35041
207 2 11.8195 13.6772 12.8629
208 2 11.7391 12.2633 12.7487
209 2 2.00761 12.4324 8.07165
210 2 0.620939 12.4357 8.92436
211 2 13.6144 14.7678 14.8239
212 2 13.3073 13.3408 14.4937
213 2 13.9424 15.0322 4.07269
214 2 0.0351063 14.7305 3.24157
215 2 8.82714 13.2312 11.2445
216 2 9.10059 12.0198 12.1789
217 2 12.3758 6.52564 7.73792