ITEM: TIMESTEP
0
ITEM: NUMBER OF ATOMS
384
ITEM: BOX BOUNDS pp pp pp
-3.1180958401302572e-01 1.5311809584013066e+01
-3.1180958401302572e-01 1.5311809584013066e+01
-3.1180958401302572e-01 1.5311809584013066e+01
ITEM: ATOMS id type x y z
1 1 4.57679 5.50123 13.6944
2 1 14.8875 3.66367 14.1079
3 1 8.20115 10.8513 3.91518
4 1 1.55859 4.11103 4.68534
5 1 14.0046 11.0534 10.4291
6 1 10.1562 -0.0244194 -0.0179537
7 1 13.1461 9.78511 5.92123
8 1 3.48566 13.6848 7.87681
9 1 3.32305 6.30373 3.20589
10 1 5.30735 8.37688 2.36991
11 1 13.7801 6.32188 1.70807
12 1 0.692367 10.1945 14.1186
13 1 15.0627 5.43363 4.6639
14 1 9.98456 5.97612 7.92121
15 1 12.4056 7.19481 3.96576
16 1 9.83562 2.64919 6.79506
17 1 4.60459 4.17249 11.4106
18 1 7.55062 10.3381 11.1669
19 1 8.27543 1.89543 14.4455
20 1 5.83253 14.0038 0.549654
21 1 -0.277952 13.5963 10.2649
22 1 12.6457 2.09652 6.28487
23 1 10.7129 7.40871 14.2399
24 1 2.2119 7.88472 6.40809
25 1 10.4542 9.69036 5.97773
26 1 -0.282536 8.22967 4.81222
27 1 1.6652 11.2607 4.20606
28 1 6.17365 -0.094545 10.725
29 1 12.1932 8.4542 0.381712
30 1 2.29814 6.67565 12.652
31 1 3.74006 5.65533 5.77839
32 1 7.64075 12.3667 7.75101
33 1 2.57949 3.81144 2.08856
34 1 3.31976 13.3432 0.0677147
35 1 -0.0967938 5.37115 7.46928
36 1 11.1426 14.5448 7.59235
37 1 1.26174 14.8074 2.57217
38 1 6.41618 0.335516 13.3898
39 1 0.207637 9.92258 2.18818
40 1 12.6731 13.1901 12.8323
41 1 1.29363 11.9761 7.9846
42 1 13.2286 14.8362 0.439531
43 1 -0.123887 15.1905 5.01064
44 1 8.80795 12.7708 12.0788
45 1 12.4172 6.75949 6.79319
46 1 9.49869 10.6014 8.40823
47 1 10.544 10.9934 13.3575
48 1 8.99001 12.8372 5.44675
49 1 4.04829 1.51716 14.6149
50 1 6.69928 13.1999 13.7041
51 1 4.43379 6.10378 9.26553
52 1 11.4216 -0.0969869 13.0672
53 1 8.10878 14.4288 3.40524
54 1 4.3962 2.37166 3.28729
55 1 12.1316 11.4523 8.45349
56 1 8.7458 10.8517 -0.213292
57 1 1.53862 1.7361 8.48855
58 1 8.69585 5.89847 11.616
59 1 1.22107 9.19196 8.49846
60 1 10.635 10.5731 3.14594
61 1 11.4957 4.51089 15.2148
62 1 10.9209 6.7156 10.446
63 1 4.94638 10.4223 10.3546
64 1 7.94749 8.55464 1.09697
65 1 14.5919 7.80968 8.4877
66 1 5.26248 14.7619 3.62401
67 1 5.62202 2.26942 6.97039
68 1 1.29568 -0.0251437 10.348
69 1 11.6689 12.7598 1.5126
70 1 8.10674 4.34492 9.29769
71 1 15.2574 12.5827 5.71394
72 1 5.13758 11.4238 7.95676
73 1 0.807368 7.59384 14.5622
74 1 1.07308 4.35508 11.6836
75 1 -0.103901 0.899318 12.6958
76 1 12.4336 12.7126 5.99741
77 1 6.5124 0.898083 1.44852
78 1 5.22926 7.74021 7.34722
79 1 4.69818 3.85809 0.25821
80 1 14.6318 1.53081 0.260033
81 1 8.7843 1.26425 2.88569
82 1 10.1715 2.86217 10.2074
83 1 1.97586 4.56417 8.94346
84 1 12.6683 15.2799 4.82665
85 1 10.1623 4.44247 4.67024
86 1 8.26116 6.29332 15.2182
87 1 2.75694 2.33071 12.3211
88 1 10.1168 15.0402 10.6766
89 1 0.0214213 11.8389 0.424274
90 1 9.92368 3.73613 12.9889
91 1 7.93039 3.8304 3.09944
92 1 3.45334 12.7245 2.72154
93 1 13.7442 3.34545 8.32257
94 1 1.06378 7.50528 1.70711
95 1 13.5608 9.51663 12.896
96 1 6.16563 2.34739 9.6158
97 1 6.00658 4.12469 4.96415
98 1 13.0409 2.11594 12.6389
99 1 9.44842 7.22402 5.61094
100 1 3.08802 8.31472 10.412
101 1 4.27645 12.564 12.0172
102 1 0.247817 12.7339 12.6695
103 1 6.92237 8.32243 4.80264
104 1 10.2096 9.4039 11.0142
105 1 8.10819 14.6608 9.11245
106 1 0.724807 14.5893 14.8093
107 1 7.38606 3.87893 0.612739
108 1 13.59 6.17467 11.3541
109 1 6.57455 9.82429 14.0409
110 1 6.72525 7.05567 13.1783
111 1 3.66994 10.3273 5.96103
112 1 1.66543 1.60839 5.77048
113 1 9.05834 13.0173 1.11863
114 1 4.11235 0.213829 6.02437
115 1 10.3679 8.11545 2.36753
116 1 3.8208 14.5044 10.4834
117 1 6.27696 11.8524 2.07137
118 1 3.1417 11.1769 14.1451
119 1 12.971 3.21476 1.56998
120 1 12.4061 13.5738 10.1924
121 1 14.0948 6.56232 13.8874
122 1 11.4172 0.689063 2.37021
123 1 1.65778 1.52802 1.12949
124 1 7.74882 0.714644 6.86752
125 1 13.0368 10.8806 0.0461404
126 1 14.1536 3.59273 10.8941
127 1 12.9937 3.74289 4.44237
128 1 4.93288 10.2326 0.481908
129 2 4.52916 4.87676 12.9369
130 2 4.69703 5.06241 14.547
131 2 14.6886 4.58995 14.3163
132 2 0.0945933 3.63697 13.6264
133 2 7.74221 10.0755 4.24889
134 2 8.99342 10.7228 3.34745
135 2 0.788771 4.72927 4.53377
136 2 1.81069 3.95163 3.77685
137 2 14.4008 11.9252 10.4575
138 2 13.9069 10.7269 11.3647
139 2 10.6725 0.201823 0.765773
140 2 9.47367 0.652849 -0.0632908
141 2 13.5922 9.97565 6.76473
142 2 13.2152 10.5455 5.32572
143 2 3.67781 14.0964 8.7488
144 2 3.53939 14.3835 7.27865
145 2 3.09567 5.45978 2.78243
146 2 3.60518 6.19337 4.09913
147 2 5.08995 9.05489 1.76222
148 2 4.54185 7.79795 2.5309
149 2 13.4381 6.67871 2.59019
150 2 14.7355 6.25337 1.79471
151 2 0.77524 9.18308 14.2443
152 2 0.388115 10.6288 14.9234
153 2 14.1894 4.91997 4.56536
154 2 14.9228 6.4107 4.60147
155 2 10.8762 5.93786 7.61697
156 2 9.58879 6.53361 7.20672
157 2 12.1014 7.06547 4.8105
158 2 11.5829 7.27566 3.48345
159 2 9.70669 3.06202 7.62541
160 2 9.96186 3.35305 6.0781
161 2 3.89127 3.51534 11.556
162 2 5.31618 3.63484 11.0911
163 2 8.36256 9.80951 10.99
164 2 7.91946 11.2623 11.3115
165 2 7.80256 2.56448 14.9346
166 2 7.58248 1.21916 14.1315
167 2 6.10462 13.5421 -0.242407
168 2 4.85977 13.825 0.528199
169 2 14.4101 13.8153 10.1623
170 2 -0.0704958 13.4422 11.1966
171 2 11.7088 2.1063 6.54679
172 2 12.6961 1.18401 5.89058
173 2 10.9921 7.5299 13.3514
174 2 11.2636 8.01166 14.7268
175 2 1.57728 7.89927 5.7134
176 2 1.87051 8.36741 7.16573
177 2 11.4302 9.71213 6.20698
178 2 10.3486 10.1292 5.1128
179 2 14.4149 8.445 5.04536
180 2 0.00164071 8.8165 4.03796
181 2 1.02838 11.8189 4.67407
182 2 2.36173 10.8675 4.79517
183 2 6.32838 0.734699 10.265
184 2 5.21972 -0.301306 10.6492
185 2 12.568 9.37229 0.310345
186 2 12.8634 7.95827 0.824663
187 2 2.56428 7.41349 12.0109
188 2 3.14156 6.4193 13.0935
189 2 3.16723 6.41343 5.9805
190 2 3.10221 4.98312 5.63197
191 2 7.73547 13.1577 8.33842
192 2 8.06104 12.6116 6.87934
193 2 1.75422 3.38105 1.7562
194 2 3.25148 3.1727 2.47226
195 2 3.15037 12.6412 14.9757
196 2 3.16776 12.9566 0.983888
197 2 0.0720948 5.37286 6.52711
198 2 -0.245356 6.34024 7.61737
199 2 11.6512 14.8569 8.35832
200 2 11.802 13.9131 7.23812
201 2 2.07792 14.3411 2.56175
202 2 1.50629 0.044002 2.08403
203 2 6.3968 14.9261 13.4491
204 2 6.20534 0.425411 12.4267
205 2 0.660795 9.1318 1.85703
206 2 0.694078 10.391 2.87312
207 2 12.3708 14.0972 13.0916
208 2 12.1841 12.5232 13.366
209 2 2.09163 12.5603 7.87369
210 2 0.901668 12.2269 8.80367
211 2 13.6981 0.109016 0.335681
212 2 13.4443 14.3386 15.279
213 2 14.5376 15.2076 4.93591
214 2 0.228484 14.9795 4.13145
215 2 9.24837 13.4527 11.622
216 2 9.52013 12.2417 12.5392
217 2 12.875 7.30125 7.44426
218 2 13.1287 6.09272 6.70831
219 2 8.70364 11.2231 8.31889
220 2 9.67729 10.2938 7.51515
221 2 10.4955 10.2933 12.7118
222 2 10.0325 10.7711 14.1408
223 2 9.87115 13.0955 5.5737
224 2 8.95145 12.0108 4.93614
225 2 4.74251 0.928236 14.2575
226 2 3.48888 1.81195 13.8977
227 2 7.56401 13.1017 13.1985
228 2 6.02622 12.6782 13.2435
229 2 3.65548 5.64787 8.88705
230 2 4.53028 5.65688 10.1121
231 2 10.7483 -0.0654962 13.7661
232 2 11.7812 0.808853 13.0779
233 2 8.36482 -0.291862 3.46612
234 2 8.34757 14.0066 4.25098
235 2 5.1094 1.81781 2.95108
236 2 4.6411 2.96006 4.03817
237 2 12.5339 11.0417 9.22128
238 2 11.1841 11.2095 8.49369
239 2 8.60742 10.312 0.576946
240 2 8.69537 11.7883 0.0583599
241 2 1.42282 1.68337 7.50469
242 2 1.60998 2.65673 8.73322
243 2 8.87953 5.11923 12.1645
244 2 8.03029 6.40716 12.1505
245 2 1.95332 8.95172 9.16853
246 2 1.28006 10.1574 8.3047
247 2 11.2632 11.2403 2.79611
248 2 10.7957 9.70539 2.72449
249 2 11.5653 5.40273 -0.288322
250 2 11.1896 4.32648 14.2564
251 2 10.4204 6.65681 9.62663
252 2 10.2607 6.46258 11.0571
253 2 5.87632 10.1769 10.5904
254 2 4.94364 10.8143 9.46912
255 2 7.91802 7.6928 0.604333
256 2 7.17835 8.74025 1.63464
257 2 14.2008 7.92642 9.35992
258 2 -0.267797 8.44072 8.55252
259 2 6.16366 14.3915 3.8125
260 2 4.75946 14.0077 3.26281
261 2 6.35085 1.60272 6.90857
262 2 4.84301 1.75402 6.76165
263 2 1.34137 0.662419 9.62968
264 2 0.817817 14.7755 10.0578
265 2 10.8342 13.0339 1.10914
266 2 12.2496 13.5788 1.43103
267 2 7.99168 4.93257 10.0429
268 2 8.59208 4.87508 8.55834
269 2 -0.0863874 13.5026 5.64494
270 2 0.00602987 12.1735 6.56287
271 2 6.0476 11.6847 7.84187
272 2 4.65027 12.2574 7.8746
273 2 -0.10786 7.21382 14.4417
274 2 1.40859 7.20909 13.8607
275 2 1.10879 5.19843 12.1297
276 2 0.142322 4.18446 11.4107
277 2 0.192301 0.569522 11.8253
278 2 0.262058 0.216297 13.3227
279 2 13.325 12.966 5.76917
280 2 12.474 12.1815 6.79075
281 2 6.96454 1.33987 0.72514
282 2 6.22808 -0.0168944 1.14781
283 2 5.28424 6.95392 7.95734
284 2 5.69738 8.44349 7.79401
285 2 4.59695 2.96295 -0.156096
286 2 4.05776 3.8329 1.0606
287 2 14.2623 2.20361 0.861912
288 2 14.7961 2.02476 15.1013
289 2 7.90736 0.984376 2.41964
290 2 8.42535 2.08554 3.23522
291 2 9.33834 3.30929 9.83257
292 2 10.1754 1.88055 10.1119
293 2 1.75381 4.52695 9.90946
294 2 1.11552 4.78978 8.54253
295 2 12.2645 0.0873025 4.07993
296 2 12.0334 14.6435 5.15054
297 2 9.97133 5.30379 5.02216
298 2 9.51596 4.30903 3.95105
299 2 9.11176 6.41377 14.7882
300 2 7.57568 6.54 14.599
301 2 2.07189 2.92609 11.9449
302 2 2.69894 1.52435 11.845
303 2 10.8501 14.3815 10.4642
304 2 10.5118 -0.206863 11.478
305 2 0.274248 12.7719 0.61942
306 2 0.108425 11.2293 1.22179
307 2 9.70727 2.84376 13.3266
308 2 10.3129 3.49932 12.1129
309 2 7.16744 3.93944 3.6373
310 2 7.68964 3.77425 2.12389
311 2 2.7812 12.2345 3.34142
312 2 4.17512 12.108 2.65722
313 2 13.4252 2.63657 7.76521
314 2 14.4885 3.85196 7.85505
315 2 1.16553 7.50623 0.684607
316 2 1.80702 6.9489 2.01705
317 2 14.4305 9.58843 13.243
318 2 13.0187 10.0336 13.4694
319 2 5.70123 2.57075 8.68482
320 2 6.80813 3.05178 9.52933
321 2 5.35787 4.80808 5.12533
322 2 5.96938 3.53575 5.71789
323 2 13.0854 2.74416 13.3668
324 2 13.871 1.59988 12.7008
325 2 8.54415 7.16809 5.28465
326 2 9.76316 8.11779 5.62097
327 2 3.5805 7.58031 10.0651
328 2 3.76188 9.05652 10.3377
329 2 4.55808 11.8882 11.3243
330 2 3.56374 12.075 12.5347
331 2 0.334551 11.7965 12.6005
332 2 0.24849 12.8839 13.5924
333 2 6.35726 8.22802 5.65351
334 2 6.38531 8.12785 4.02112
335 2 10.214 9.5859 10.0692
336 2 10.6644 8.57403 11.1276
337 2 8.95214 14.8857 9.64428
338 2 7.3584 14.7538 9.70982
339 2 0.591563 15.0693 0.0182509
340 2 1.70203 14.3696 14.7724
341 2 6.4741 3.89198 0.306924
342 2 7.8908 4.74294 0.474307
343 2 13.7745 5.25403 11.174
344 2 12.6407 6.3597 11.1641
345 2 6.61181 10.3071 13.1711
346 2 7.38294 10.2018 14.4287
347 2 5.92965 6.53312 13.3142
348 2 6.65131 8.00804 13.4902
349 2 4.1508 10.9057 6.58172
350 2 3.72612 9.43762 6.27968
351 2 0.960879 1.05271 5.33877
352 2 1.48012 2.49213 5.40543
353 2 8.71011 13.4532 1.93204
354 2 8.99593 13.78 0.520382
355 2 3.28533 0.709593 5.89467
356 2 4.52263 -0.105961 5.1872
357 2 10.8957 8.12501 1.5533
358 2 9.392 8.09909 2.00114
359 2 2.85608 14.8006 10.6062
360 2 3.90293 13.7417 11.0449
361 2 6.48734 12.6937 1.54518
362 2 7.04029 11.6822 2.67807
363 2 2.24681 10.7375 14.3261
364 2 3.668 10.6767 14.8241
365 2 12.3482 3.69431 0.972113
366 2 13.2921 3.83378 2.19605
367 2 12.5073 12.8061 9.60602
368 2 12.5354 13.311 11.1419
369 2 13.9506 6.55755 12.8999
370 2 13.4462 7.1125 14.3857
371 2 11.8334 1.45816 2.05064
372 2 10.4376 0.894116 2.52875
373 2 0.844146 1.54638 0.605455
374 2 2.39804 1.38307 0.478242
375 2 7.77884 0.12269 7.66547
376 2 8.60235 1.23456 6.91956
377 2 12.4122 11.5105 0.551261
378 2 13.9301 11.2794 0.187093
379 2 13.8259 3.47873 9.96028
380 2 13.5184 3.1733 11.5056
381 2 12.9666 3.11167 5.2382
382 2 12.0906 4.05916 4.29522
383 2 5.48443 10.7696 1.07083
384 2 5.47524 10.05 -0.286949
ITEM: TIMESTEP
200
ITEM: NUMBER OF ATOMS
384
ITEM: BOX BOUNDS pp pp pp
-2.2989006347002316e-01 1.5229890063470055e+01
-2.0075667969305755e-01 1.5200756679693095e+01
-2.0224793522469486e-01 1.5202247935224751e+01
ITEM: ATOMS id type x y z
1 1 4.5319 5.63654 13.1831
2 1 14.5137 3.89029 14.0661
3 1 7.65218 10.6206 3.68926
4 1 1.63653 3.86899 4.63537
5 1 13.7039 10.0066 10.2659
6 1 9.92163 0.167729 -0.0792323
7 1 13.3527 9.61044 6.09514
8 1 3.4941 13.407 7.67993
9 1 3.25259 6.39654 2.87252
10 1 5.41377 8.01983 2.38114
11 1 13.8521 6.50861 1.84558
12 1 0.513851 10.1603 13.6757
13 1 14.9145 5.34502 4.7988
14 1 9.85882 6.04037 7.81667
15 1 12.1812 7.01865 3.98198
16 1 9.9992 2.88236 6.80888
17 1 4.65444 3.96903 11.2891
18 1 7.38077 10.503 11.2016
19 1 8.29946 1.96495 14.3858
20 1 5.80767 13.7405 0.480595
21 1 -0.200087 13.1614 9.90436
22 1 12.4895 1.96581 6.0208
23 1 10.6971 6.9764 14.0108
24 1 1.96475 7.76093 6.14862
25 1 10.4976 9.25028 5.71245
26 1 15.1946 8.14613 4.60335
27 1 1.71903 11.3465 4.42875
28 1 6.00172 0.344386 10.6618
29 1 12.2157 8.01497 0.213838
30 1 2.20736 6.58783 12.3532
31 1 3.58887 5.66184 5.31166
32 1 7.72917 11.9463 7.86477
33 1 2.88909 3.66933 2.133
34 1 2.92556 13.3555 0.143043
35 1 -0.141129 5.41815 7.61495
36 1 10.7564 14.6951 7.41699
37 1 1.40922 14.4845 2.54794
38 1 6.04844 0.445149 13.3719
39 1 0.515597 9.95822 2.56533
40 1 12.2844 13.0406 12.6263
41 1 1.03959 12.1093 7.9735
42 1 13.805 14.1381 0.18867
43 1 -0.0969508 15.058 4.65025
44 1 8.61238 12.7172 11.7824
45 1 12.4372 6.26348 6.69906
46 1 9.78965 10.2667 8.21125
47 1 10.5208 10.9839 12.8707
48 1 8.94093 12.3576 5.27601
49 1 3.7952 1.58285 14.3522
50 1 6.45837 13.1737 13.4891
51 1 4.0508 5.97267 9.06237
52 1 11.3028 -0.0670903 12.9242
53 1 7.56238 14.1358 3.4465
54 1 4.50099 2.16921 3.41941
55 1 12.2282 11.1835 8.52015
56 1 8.75395 10.3305 15.2007
57 1 1.65376 1.76249 8.42263
58 1 8.49999 5.5675 11.6289
59 1 1.23384 9.11637 8.4142
60 1 10.5692 10.5 3.34248
61 1 11.5569 4.31689 14.8131
62 1 10.6512 6.87645 10.5849
63 1 4.92441 10.0773 9.89407
64 1 7.98646 8.06944 1.34726
65 1 14.2614 7.75391 8.47584
66 1 4.95621 14.7179 3.67326
67 1 5.69587 1.85995 6.76484
68 1 1.44864 0.323947 10.5127
69 1 11.4012 12.382 1.5356
70 1 8.14848 4.28439 9.36655
71 1 15.191 12.5349 5.67113
72 1 5.07674 11.263 7.65314
73 1 0.815558 7.43769 14.3603
74 1 1.07471 4.31135 11.849
75 1 -0.189517 0.732611 12.769
76 1 12.5167 12.4067 6.10334
77 1 6.41269 1.01754 1.27777
78 1 5.52333 8.10174 7.19961
79 1 4.50092 3.99916 -0.160327
80 1 14.6785 1.7101 0.241252
81 1 8.70419 1.22322 2.76731
82 1 10.0999 2.59757 10.3079
83 1 1.71298 4.37155 8.74769
84 1 12.6625 15.1327 4.10425
85 1 10.2041 4.75272 4.96214
86 1 8.42884 6.2072 15.0165
87 1 2.7133 2.30496 12.1478
88 1 9.95731 14.5997 10.7985
89 1 -0.213643 11.3137 0.550022
90 1 9.67335 3.56836 12.7346
91 1 8.05791 3.80821 3.62716
92 1 3.25588 12.57 2.70598
93 1 13.4282 3.52072 8.14558
94 1 0.778001 7.46688 1.82255
95 1 13.3263 9.85034 12.7758
96 1 6.1249 2.73453 9.16946
97 1 5.69955 3.83142 5.07228
98 1 13.0059 1.90971 12.7253
99 1 8.96619 7.08448 5.42584
100 1 3.04022 8.15351 10.2351
101 1 4.61096 12.085 12.0223
102 1 0.525752 12.6389 12.3197
103 1 6.7495 8.38307 4.76355
104 1 9.80686 9.48776 10.8325
105 1 7.92954 14.5656 8.97721
106 1 0.637624 14.3365 14.4083
107 1 7.39968 3.94061 0.668489
108 1 13.4067 6.7324 11.0341
109 1 6.73762 9.49171 13.6048
110 1 6.87453 6.88296 13.1694
111 1 3.55645 9.96436 5.72486
112 1 1.61719 1.21932 5.7153
113 1 9.00885 13.1656 0.927479
114 1 3.87557 0.0330382 6.09537
115 1 10.4477 8.14229 2.28286
116 1 3.8824 14.2147 10.3482
117 1 5.63681 11.6588 2.23642
118 1 3.17867 11.111 14.0975
119 1 12.4215 2.93334 1.57327
120 1 12.5405 13.4607 9.99008
121 1 13.7553 6.37774 13.7236
122 1 11.3566 0.723287 2.1291
123 1 1.81676 1.2746 1.07689
124 1 8.06406 0.75061 6.66322
125 1 12.6972 10.5958 -0.190963
126 1 13.9946 3.81952 10.751
127 1 12.6198 3.99082 4.06605
128 1 4.8893 9.63633 0.296786
129 2 4.86211 4.89409 12.5506
130 2 4.53979 5.23979 14.0053
131 2 14.4213 4.76245 14.0496
132 2 15.1689 3.84022 13.3831
133 2 7.31805 9.66457 4.32343
134 2 8.44742 10.4209 3.34157
135 2 0.81744 4.43331 4.61649
136 2 2.07285 3.71162 3.73038
137 2 14.447 10.5096 10.0947
138 2 13.4504 9.91615 11.4216
139 2 10.4838 0.492603 0.797045
140 2 9.19927 0.671846 15.187
141 2 13.4694 9.47326 7.08801
142 2 13.06 10.4314 5.88288
143 2 3.7414 13.796 8.64523
144 2 3.68775 13.9992 7.03549
145 2 3.12067 5.70281 2.30289
146 2 3.40155 5.95626 3.66656
147 2 4.93732 8.51714 1.66677
148 2 4.64767 7.33162 2.41144
149 2 13.382 6.56744 2.6151
150 2 14.7538 6.89398 2.12347
151 2 0.534563 9.08826 13.7911
152 2 0.522288 10.2317 14.6528
153 2 13.9924 4.89107 4.42446
154 2 14.8932 6.34143 4.56207
155 2 10.6938 6.29706 7.20798
156 2 9.31403 6.5199 7.2476
157 2 12.1331 7.0553 4.8588
158 2 11.3812 7.60287 3.60182
159 2 10.0249 3.08333 7.7462
160 2 9.98126 3.73391 6.2224
161 2 3.97615 3.20818 11.2992
162 2 5.08728 3.6357 10.4624
163 2 8.15267 9.87818 11.1425
164 2 7.61251 11.4736 11.2427
165 2 8.19205 2.5593 15.1957
166 2 7.46964 1.84043 13.8756
167 2 6.43398 13.6764 15.0554
168 2 4.85987 14.052 0.393445
169 2 14.2474 13.3258 9.77182
170 2 -0.0771742 13.062 10.7464
171 2 11.4021 2.17085 6.16195
172 2 12.7222 1.07748 5.44336
173 2 11.0142 7.24241 13.009
174 2 11.2393 7.38824 14.63
175 2 1.10472 7.8903 5.58372
176 2 1.75349 8.20317 6.96439
177 2 11.4994 8.98752 5.97815
178 2 10.3412 9.86863 4.94471
179 2 14.571 8.6618 4.98028
180 2 -0.0989331 8.69105 3.74294
181 2 1.10142 11.7167 4.99563
182 2 2.37309 10.843 4.99626
183 2 6.13288 1.03151 10.2106
184 2 5.17046 -0.117289 10.3563
185 2 12.6309 8.86299 -0.0258404
186 2 13.0866 7.46911 0.845813
187 2 2.51136 7.04417 11.5883
188 2 2.9482 6.27469 12.8168
189 2 3.03545 6.23573 5.79196
190 2 2.95444 4.85162 5.32035
191 2 7.44958 13.0385 8.07918
192 2 8.35083 11.9386 6.9135
193 2 2.42479 2.91726 1.7081
194 2 3.56564 3.09769 2.74799
195 2 2.71587 12.4242 14.9679
196 2 2.80395 13.0613 1.29245
197 2 15.2224 5.49187 6.32903
198 2 15.0598 6.4654 7.99928
199 2 11.5879 -0.188291 7.63272
200 2 11.2698 13.9545 7.26304
201 2 2.26806 14.0405 2.846
202 2 1.49827 -0.148304 1.88051
203 2 6.13926 14.8779 13.3656
204 2 6.09994 0.648348 12.3824
205 2 1.12988 9.21968 2.45529
206 2 0.873129 10.5914 3.23205
207 2 11.8409 13.942 12.6038
208 2 11.6862 12.2498 12.7188
209 2 2.01665 12.7875 8.01443
210 2 0.376417 12.5941 8.59744
211 2 13.7399 15.1251 0.200285
212 2 13.4123 14.025 14.7481
213 2 14.5501 -0.121743 4.34325
214 2 0.379324 14.8516 3.90256
215 2 8.98832 13.6034 11.4361
216 2 9.20371 12.1652 12.227
217 2 13.1716 6.87821 7.20904
218 2 12.979 5.428 6.76465
219 2 8.87577 10.7262 8.07085
220 2 9.86477 9.75993 7.30752
221 2 10.5334 10.2165 12.2295
222 2 10.007 10.8627 13.7027
223 2 9.81044 12.033 5.18707
224 2 8.17975 11.3759 5.06915
225 2 4.61901 1.1078 14.1324
226 2 3.2416 1.74871 13.5922
227 2 7.36687 13.093 13.1052
228 2 5.77282 12.5726 12.9848
229 2 3.32577 5.28093 9.06945
230 2 4.39407 5.42429 9.75352
231 2 10.8594 0.269922 13.8329
232 2 12.033 0.796939 12.8324
233 2 8.02127 15.0737 3.50629
234 2 8.11238 13.6845 4.26864
235 2 5.03727 1.63652 2.81245
236 2 5.21433 2.54143 3.88684
237 2 12.4946 10.7783 9.35721
238 2 11.3202 10.8667 8.27781
239 2 8.32733 9.55717 0.407766
240 2 8.59957 11.3139 0.208765
241 2 1.51357 1.57849 7.51744
242 2 1.78619 2.68888 8.46677
243 2 8.95474 4.93533 12.1096
244 2 7.86353 6.0132 12.1908
245 2 1.75313 8.78149 9.11574
246 2 1.30087 10.0911 8.24578
247 2 10.7773 11.3562 2.96646
248 2 10.419 9.59002 2.79055
249 2 11.0591 5.15988 14.9241
250 2 10.9965 4.0212 14.0003
251 2 10.8492 6.30695 9.92475
252 2 9.70708 6.44072 10.8879
253 2 5.84977 10.0935 10.1983
254 2 4.91443 10.7534 9.1608
255 2 8.10883 7.15177 0.652778
256 2 7.05013 8.02002 1.74319
257 2 13.8895 7.35917 9.25997
258 2 15.0725 8.28216 8.83081
259 2 5.93928 14.4333 3.76429
260 2 4.63694 13.8192 3.38272
261 2 6.61826 1.36534 6.71745
262 2 4.88602 1.19967 6.51991
263 2 1.59645 0.841853 9.54499
264 2 0.781407 14.9788 10.3136
265 2 10.5925 12.9009 1.19156
266 2 12.0778 13.0824 1.46135
267 2 8.39895 4.73461 10.1808
268 2 8.54239 4.71633 8.65993
269 2 -0.189073 13.4963 5.46367
270 2 0.293637 12.4781 6.33346
271 2 6.05954 11.4761 7.61267
272 2 4.72865 12.115 7.53684
273 2 -0.00166802 7.01707 14.4951
274 2 1.05217 6.90263 13.629
275 2 1.34208 5.2436 11.8898
276 2 0.317336 4.34644 11.159
277 2 0.50755 0.489908 11.9962
278 2 0.199354 0.367247 13.5666
279 2 13.4511 12.4153 5.89558
280 2 12.5312 12.1079 7.01616
281 2 6.03882 1.38999 0.579263
282 2 6.18258 0.13139 1.27257
283 2 5.48159 7.22912 7.67455
284 2 5.48405 8.72664 7.87509
285 2 4.38301 2.97704 14.7809
286 2 3.90455 4.17239 0.653958
287 2 14.1115 2.1604 0.851574
288 2 14.7543 2.36932 14.8776
289 2 7.92252 1.3117 2.08877
290 2 8.64861 1.93659 3.35904
291 2 9.51908 3.20858 9.74769
292 2 10.4933 1.66869 10.044
293 2 1.28362 4.37424 9.8049
294 2 0.978426 5.08043 8.40988
295 2 11.9231 0.0236136 3.26373
296 2 12.4308 14.3478 4.55796
297 2 9.94963 5.76688 4.94849
298 2 9.44597 4.40487 4.33849
299 2 9.36539 6.68157 14.6548
300 2 7.67149 6.28374 14.201
301 2 2.04991 3.08264 11.9184
302 2 2.47114 1.6184 11.5697
303 2 10.7191 14.5032 10.044
304 2 10.5038 15.0218 11.4579
305 2 15.191 12.3328 0.742763
306 2 0.188811 10.8444 1.35337
307 2 9.32628 2.98211 13.3978
308 2 9.97871 2.91508 12.0549
309 2 7.28048 4.0068 4.11043
310 2 7.8702 4.06178 2.66895
311 2 2.5482 12.052 3.20766
312 2 4.14302 12.1429 2.59082
313 2 13.2958 2.74201 7.5899
314 2 14.1787 3.94401 7.83063
315 2 0.987188 7.47177 0.834171
316 2 1.63932 7.09429 2.24383
317 2 14.3543 9.91696 13.095
318 2 12.6881 10.2555 13.3667
319 2 5.87624 2.44332 8.35042
320 2 6.96818 3.21311 9.18718
321 2 4.88766 4.39171 5.07502
322 2 5.77546 3.20932 5.83249
323 2 12.9466 2.47877 13.4734
324 2 13.8607 1.47674 12.8945
325 2 8.1682 7.33154 4.97894
326 2 9.27623 7.88419 5.53857
327 2 3.68341 7.34547 9.68349
328 2 3.78777 8.83622 10.2621
329 2 4.65658 11.3692 11.2562
330 2 4.16545 11.6923 12.8558
331 2 0.241446 11.7677 12.8412
332 2 0.505438 13.3191 12.9384
333 2 6.24372 8.37292 5.54371
334 2 6.27844 8.29459 4.06791
335 2 9.81265 9.93711 9.88163
336 2 10.2915 8.66276 10.5625
337 2 8.79501 14.8934 9.55889
338 2 7.10536 14.7963 9.50937
339 2 -0.0606287 14.4656 15.1859
340 2 1.57552 13.9995 14.7096
341 2 6.3534 4.17568 0.740347
342 2 7.70504 4.78039 0.364509
343 2 13.5651 5.77006 10.8117
344 2 12.3435 6.83498 10.9823
345 2 6.89626 10.0555 12.7516
346 2 7.61685 9.75504 14.0629
347 2 5.98102 6.44467 13.1464
348 2 6.89368 7.83491 13.3174
349 2 3.68886 10.3998 6.59883
350 2 2.87686 9.21749 5.80746
351 2 0.949182 0.563469 5.33097
352 2 1.3588 2.21977 5.21226
353 2 8.61021 13.1732 1.8339
354 2 9.30722 14.0477 0.639499
355 2 2.95317 0.484906 5.9761
356 2 4.32468 15.1013 5.22371
357 2 11.1716 8.07158 1.42477
358 2 9.56031 8.02975 1.96287
359 2 3.08 14.7542 10.5084
360 2 3.97042 13.4201 11.0072
361 2 5.73866 12.5279 1.76843
362 2 6.50355 11.5235 2.79683
363 2 2.52437 10.5037 13.6242
364 2 3.70198 10.317 14.7152
365 2 11.9946 3.59653 0.889599
366 2 12.388 3.28881 2.41258
367 2 12.3989 12.6951 9.25633
368 2 12.2444 13.3027 11.0002
369 2 13.6527 6.55287 12.9174
370 2 12.8687 6.51163 13.986
371 2 11.7051 1.79337 2.09547
372 2 10.4064 1.05391 2.30898
373 2 0.906881 1.52527 0.660071
374 2 2.35865 0.998423 0.348523
375 2 8.19802 0.129824 7.42803
376 2 8.75453 1.50873 6.62241
377 2 12.2614 11.223 0.370358
378 2 13.8141 10.7239 0.0203052
379 2 13.8784 3.6781 9.67881
380 2 13.4615 3.20459 11.1208
381 2 12.738 3.26881 4.69304
382 2 11.6377 4.50342 4.24882
383 2 5.34976 10.3689 0.599562
384 2 5.27946 9.37651 14.905
ITEM: TIMESTEP
400
ITEM: NUMBER OF ATOMS
384
ITEM: BOX BOUNDS pp pp pp
-1.7792508045011868e-01 1.5177925080450148e+01
-7.2874872329593998e-02 1.5072874872329617e+01
-1.0143935956222627e-01 1.5101439359562306e+01
ITEM: ATOMS id type x y z
1 1 4.47337 5.56755 12.6624
2 1 14.879 3.52817 14.0606
3 1 7.26541 10.4766 3.60015
4 1 1.6995 3.46274 4.38798
5 1 13.6915 9.69245 10.0913
6 1 9.45187 -0.0465674 14.9456
7 1 13.3851 9.3105 6.44318
8 1 3.48408 13.0158 7.90193
9 1 3.43799 6.00513 2.44651
10 1 5.53604 7.49903 2.05112
11 1 14.067 6.83856 2.06083
12 1 0.594709 10.109 13.7234
13 1 -0.0759016 5.26725 4.73939
14 1 9.57309 6.40734 8.16916
15 1 12.2798 6.63249 4.3874
16 1 10.2741 2.85467 6.83738
17 1 4.4414 3.93322 10.6297
18 1 7.02574 10.4089 11.0502
19 1 7.89102 2.02381 14.3787
20 1 5.80836 13.3187 0.522765
21 1 -0.0080067 13.1817 9.78708
22 1 12.0999 2.0181 5.26586
23 1 10.779 6.47985 13.5074
24 1 1.95034 7.81937 6.2461
25 1 10.6948 9.00669 5.75186
26 1 15.0458 8.04056 4.77016
27 1 1.65667 11.131 4.4293
28 1 5.94574 0.596055 10.4635
29 1 12.1363 7.73146 0.290445
30 1 2.09447 6.66895 12.0335
31 1 3.38813 5.57126 5.20803
32 1 7.60154 11.9823 7.83555
33 1 3.30071 3.49015 1.6798
34 1 3.17315 13.0167 0.184858
35 1 -0.168312 4.97147 7.32553
36 1 10.7607 14.5628 7.40059
37 1 1.12643 14.3727 2.05289
38 1 5.98988 0.823668 13.1856
39 1 0.366692 9.66572 2.68713
40 1 12.2966 13.0974 12.748
41 1 1.21847 11.7994 8.09838
42 1 13.3042 13.6753 -0.0266831
43 1 15.0816 14.876 4.30232
44 1 8.7995 12.7651 11.8674
45 1 12.0077 5.97946 7.12078
46 1 9.80872 10.2784 8.01292
47 1 10.3956 10.8422 12.6609
48 1 8.55542 12.1412 5.37814
49 1 3.71292 1.66016 14.1726
50 1 6.37133 13.3207 13.1886
51 1 4.04315 6.03106 8.5349
52 1 11.2146 0.275173 12.5148
53 1 7.3711 13.7921 3.54512
54 1 4.61133 1.98933 3.46303
55 1 12.1175 11.3434 8.66898
56 1 9.04135 10.1992 -0.0490938
57 1 2.2136 1.53112 8.35113
58 1 8.64188 5.275 11.6565
59 1 0.938996 9.22675 8.50553
60 1 10.0544 10.4067 3.5294
61 1 11.8082 3.9667 14.0615
62 1 10.2658 6.93343 10.5161
63 1 4.72567 9.88452 9.59012
64 1 8.26396 7.85882 1.51645
65 1 14.3315 7.59335 7.97387
66 1 4.79878 14.4874 3.58433
67 1 5.77985 1.65065 6.6096
68 1 1.66866 0.15622 10.3584
69 1 11.4549 12.5148 1.6629
70 1 8.41251 3.95755 9.17088
71 1 -0.142854 12.4686 5.80944
72 1 5.29166 11.0216 7.29167
73 1 0.729662 7.52457 14.2475
74 1 0.564909 4.27947 11.5975
75 1 0.0125818 1.10265 12.4872
76 1 12.407 12.3701 6.02044
77 1 6.31118 0.754692 1.35473
78 1 5.8295 7.98125 7.44308
79 1 4.86787 4.10403 14.8822
80 1 14.3875 1.20621 0.479613
81 1 8.41848 1.06473 2.84826
82 1 10.1035 2.23981 10.3964
83 1 1.86843 4.20929 8.88255
84 1 12.3244 14.8509 3.93979
85 1 9.87035 4.69051 5.03935
86 1 8.28668 5.80724 14.9383
87 1 2.61936 2.26726 11.5865
88 1 10.1929 14.5482 10.3121
89 1 14.7834 11.2417 0.750562
90 1 9.75028 3.10637 12.8281
91 1 7.76157 3.45887 3.61011
92 1 3.34305 12.5023 2.87541
93 1 13.0553 3.70419 7.749
94 1 1.34409 7.6435 1.59815
95 1 13.3063 9.47962 12.7255
96 1 6.15124 2.76229 8.92387
97 1 5.76564 3.951 5.33456
98 1 12.7545 2.27715 12.3918
99 1 8.74105 7.09487 5.8336
100 1 2.87138 8.01932 9.86279
101 1 4.37406 11.7858 11.7601
102 1 1.14621 12.1006 11.7658
103 1 6.37382 8.27858 4.80444
104 1 9.31953 9.42193 10.5473
105 1 7.99453 14.4719 8.66586
106 1 0.941861 14.0707 14.1817
107 1 7.03357 3.93595 1.24539
108 1 12.9061 6.67256 10.6258
109 1 6.93832 9.39456 13.4965
110 1 6.76109 6.78922 12.9557
111 1 3.71394 9.73747 5.2531
112 1 1.45318 1.1135 5.70616
113 1 8.70355 12.8702 1.13363
114 1 3.6347 14.9031 6.16893
115 1 10.7552 8.0406 2.59562
116 1 3.88333 14.0966 10.2861
117 1 5.46439 11.1564 1.86501
118 1 3.14836 10.9207 14.0278
119 1 12.4093 2.85061 1.37259
120 1 12.6265 13.4666 10.1129
121 1 13.8723 6.59169 13.3282
122 1 10.8432 0.682251 2.18594
123 1 1.83142 1.52658 0.942799
124 1 8.28077 0.910675 6.15455
125 1 12.3811 10.2934 0.0408423
126 1 13.4549 4.16551 10.6651
127 1 13.0619 4.17881 3.90736
128 1 4.68586 9.33799 0.0174145
129 2 4.3797 4.81098 12.0277
130 2 4.699 5.10758 13.5755
131 2 14.3953 4.21792 14.6234
132 2 -0.0785842 4.20703 13.4024
133 2 7.11503 9.54701 4.07028
134 2 8.00142 10.4512 3.08153
135 2 1.0759 4.16183 4.27404
136 2 2.05482 3.12794 3.49069
137 2 14.7138 9.99246 10.0439
138 2 13.452 9.84702 11.0861
139 2 10.1541 0.146752 0.583245
140 2 8.85846 0.731864 14.776
141 2 13.8697 8.71834 7.11093
142 2 13.7256 10.199 6.53652
143 2 3.56186 13.799 8.6499
144 2 3.43806 13.4489 7.04631
145 2 3.16606 5.14768 2.15847
146 2 3.3474 5.68076 3.32836
147 2 5.29234 8.06077 1.26809
148 2 4.79848 6.91534 2.35151
149 2 13.827 7.32527 2.92615
150 2 15.1036 6.84687 2.04785
151 2 0.766684 8.9695 13.9068
152 2 0.0859821 10.5543 14.3926
153 2 14.5388 4.72443 4.35876
154 2 -0.0755811 6.28325 4.36348
155 2 10.5687 6.08389 7.57398
156 2 8.97851 6.8201 7.47323
157 2 11.8683 6.39786 5.33658
158 2 11.5708 6.95229 3.74929
159 2 10.4322 3.29186 7.62822
160 2 9.94243 3.71527 6.25579
161 2 3.91799 3.12505 10.759
162 2 5.25781 3.65839 10.1401
163 2 7.63276 9.86427 10.7719
164 2 7.59985 11.2217 11.1828
165 2 7.70424 2.47334 15.0906
166 2 7.14677 1.54569 14.0372
167 2 6.3158 13.1458 14.8701
168 2 4.78286 13.1936 0.434933
169 2 14.4054 13.4971 9.98066
170 2 0.31393 12.811 10.8455
171 2 11.3951 2.08628 5.95088
172 2 12.2317 1.16657 4.96614
173 2 10.8812 6.31621 12.5432
174 2 11.2442 7.17101 13.9703
175 2 1.14672 7.68533 5.74167
176 2 1.64701 7.99077 7.09528
177 2 11.6619 9.17041 6.03984
178 2 10.4015 9.45677 4.86656
179 2 14.3529 8.27556 5.40698
180 2 15.1702 8.61287 3.89078
181 2 0.986189 11.6699 4.94224
182 2 2.33684 10.6899 4.93646
183 2 5.78432 1.37439 9.8234
184 2 5.0621 14.9585 10.4424
185 2 12.1874 8.89598 0.145883
186 2 12.7548 7.43487 0.984361
187 2 2.31877 7.34094 11.4132
188 2 2.9224 6.12877 12.3009
189 2 2.80614 6.2817 5.55405
190 2 2.90801 4.71326 5.02987
191 2 7.60229 12.8609 8.33796
192 2 7.80215 12.3281 6.87527
193 2 2.5911 2.99042 1.27059
194 2 3.84793 2.85943 2.19146
195 2 3.10042 12.2572 14.6831
196 2 2.76261 12.7379 1.02426
197 2 0.187309 5.06366 6.51668
198 2 -0.149885 5.95551 7.44763
199 2 11.394 14.8749 8.02481
200 2 11.4133 14.2301 6.65466
201 2 2.04633 14.0611 2.23085
202 2 1.4772 0.068106 1.53562
203 2 6.06459 15.0021 13.2671
204 2 5.79664 0.666678 12.1163
205 2 1.1861 9.10843 2.44298
206 2 0.95327 10.239 3.31553
207 2 11.8408 13.955 12.8097
208 2 11.516 12.4699 12.7673
209 2 2.06224 12.3893 8.03474
210 2 0.724979 12.2053 8.91661
211 2 13.7184 14.4752 -0.0473181
212 2 12.8392 13.4566 14.4726
213 2 13.953 14.964 4.20712
214 2 0.0306117 14.6868 3.47561
215 2 9.08496 13.1826 11.1109
216 2 9.50869 11.9792 12.0946
217 2 12.4718 6.43765 7.87434