ITEM: TIMESTEP
0
ITEM: NUMBER OF ATOMS
384
ITEM: BOX BOUNDS pp pp pp
-3.1180958401302572e-01 1.5311809584013066e+01
-3.1180958401302572e-01 1.5311809584013066e+01
-3.1180958401302572e-01 1.5311809584013066e+01
ITEM: ATOMS id type x y z
1 1 4.57679 5.50123 13.6944
2 1 14.8875 3.66367 14.1079
3 1 8.20115 10.8513 3.91518
4 1 1.55859 4.11103 4.68534
5 1 14.0046 11.0534 10.4291
6 1 10.1562 -0.0244194 -0.0179537
7 1 13.1461 9.78511 5.92123
8 1 3.48566 13.6848 7.87681
9 1 3.32305 6.30373 3.20589
10 1 5.30735 8.37688 2.36991
11 1 13.7801 6.32188 1.70807
12 1 0.692367 10.1945 14.1186
13 1 15.0627 5.43363 4.6639
14 1 9.98456 5.97612 7.92121
15 1 12.4056 7.19481 3.96576
16 1 9.83562 2.64919 6.79506
17 1 4.60459 4.17249 11.4106
18 1 7.55062 10.3381 11.1669
19 1 8.27543 1.89543 14.4455
20 1 5.83253 14.0038 0.549654
21 1 -0.277952 13.5963 10.2649
22 1 12.6457 2.09652 6.28487
23 1 10.7129 7.40871 14.2399
24 1 2.2119 7.88472 6.40809
25 1 10.4542 9.69036 5.97773
26 1 -0.282536 8.22967 4.81222
27 1 1.6652 11.2607 4.20606
28 1 6.17365 -0.094545 10.725
29 1 12.1932 8.4542 0.381712
30 1 2.29814 6.67565 12.652
31 1 3.74006 5.65533 5.77839
32 1 7.64075 12.3667 7.75101
33 1 2.57949 3.81144 2.08856
34 1 3.31976 13.3432 0.0677147
35 1 -0.0967938 5.37115 7.46928
36 1 11.1426 14.5448 7.59235
37 1 1.26174 14.8074 2.57217
38 1 6.41618 0.335516 13.3898
39 1 0.207637 9.92258 2.18818
40 1 12.6731 13.1901 12.8323
41 1 1.29363 11.9761 7.9846
42 1 13.2286 14.8362 0.439531
43 1 -0.123887 15.1905 5.01064
44 1 8.80795 12.7708 12.0788
45 1 12.4172 6.75949 6.79319
46 1 9.49869 10.6014 8.40823
47 1 10.544 10.9934 13.3575
48 1 8.99001 12.8372 5.44675
49 1 4.04829 1.51716 14.6149
50 1 6.69928 13.1999 13.7041
51 1 4.43379 6.10378 9.26553
52 1 11.4216 -0.0969869 13.0672
53 1 8.10878 14.4288 3.40524
54 1 4.3962 2.37166 3.28729
55 1 12.1316 11.4523 8.45349
56 1 8.7458 10.8517 -0.213292
57 1 1.53862 1.7361 8.48855
58 1 8.69585 5.89847 11.616
59 1 1.22107 9.19196 8.49846
60 1 10.635 10.5731 3.14594
61 1 11.4957 4.51089 15.2148
62 1 10.9209 6.7156 10.446
63 1 4.94638 10.4223 10.3546
64 1 7.94749 8.55464 1.09697
65 1 14.5919 7.80968 8.4877
66 1 5.26248 14.7619 3.62401
67 1 5.62202 2.26942 6.97039
68 1 1.29568 -0.0251437 10.348
69 1 11.6689 12.7598 1.5126
70 1 8.10674 4.34492 9.29769
71 1 15.2574 12.5827 5.71394
72 1 5.13758 11.4238 7.95676
73 1 0.807368 7.59384 14.5622
74 1 1.07308 4.35508 11.6836
75 1 -0.103901 0.899318 12.6958
76 1 12.4336 12.7126 5.99741
77 1 6.5124 0.898083 1.44852
78 1 5.22926 7.74021 7.34722
79 1 4.69818 3.85809 0.25821
80 1 14.6318 1.53081 0.260033
81 1 8.7843 1.26425 2.88569
82 1 10.1715 2.86217 10.2074
83 1 1.97586 4.56417 8.94346
84 1 12.6683 15.2799 4.82665
85 1 10.1623 4.44247 4.67024
86 1 8.26116 6.29332 15.2182
87 1 2.75694 2.33071 12.3211
88 1 10.1168 15.0402 10.6766
89 1 0.0214213 11.8389 0.424274
90 1 9.92368 3.73613 12.9889
91 1 7.93039 3.8304 3.09944
92 1 3.45334 12.7245 2.72154
93 1 13.7442 3.34545 8.32257
94 1 1.06378 7.50528 1.70711
95 1 13.5608 9.51663 12.896
96 1 6.16563 2.34739 9.6158
97 1 6.00658 4.12469 4.96415
98 1 13.0409 2.11594 12.6389
99 1 9.44842 7.22402 5.61094
100 1 3.08802 8.31472 10.412
101 1 4.27645 12.564 12.0172
102 1 0.247817 12.7339 12.6695
103 1 6.92237 8.32243 4.80264
104 1 10.2096 9.4039 11.0142
105 1 8.10819 14.6608 9.11245
106 1 0.724807 14.5893 14.8093
107 1 7.38606 3.87893 0.612739
108 1 13.59 6.17467 11.3541
109 1 6.57455 9.82429 14.0409
110 1 6.72525 7.05567 13.1783
111 1 3.66994 10.3273 5.96103
112 1 1.66543 1.60839 5.77048
113 1 9.05834 13.0173 1.11863
114 1 4.11235 0.213829 6.02437
115 1 10.3679 8.11545 2.36753
116 1 3.8208 14.5044 10.4834
117 1 6.27696 11.8524 2.07137
118 1 3.1417 11.1769 14.1451
119 1 12.971 3.21476 1.56998
120 1 12.4061 13.5738 10.1924
121 1 14.0948 6.56232 13.8874
122 1 11.4172 0.689063 2.37021
123 1 1.65778 1.52802 1.12949
124 1 7.74882 0.714644 6.86752
125 1 13.0368 10.8806 0.0461404
126 1 14.1536 3.59273 10.8941
127 1 12.9937 3.74289 4.44237
128 1 4.93288 10.2326 0.481908
129 2 4.52916 4.87676 12.9369
130 2 4.69703 5.06241 14.547
131 2 14.6886 4.58995 14.3163
132 2 0.0945933 3.63697 13.6264
133 2 7.74221 10.0755 4.24889
134 2 8.99342 10.7228 3.34745
135 2 0.788771 4.72927 4.53377
136 2 1.81069 3.95163 3.77685
137 2 14.4008 11.9252 10.4575
138 2 13.9069 10.7269 11.3647
139 2 10.6725 0.201823 0.765773
140 2 9.47367 0.652849 -0.0632908
141 2 13.5922 9.97565 6.76473
142 2 13.2152 10.5455 5.32572
143 2 3.67781 14.0964 8.7488
144 2 3.53939 14.3835 7.27865
145 2 3.09567 5.45978 2.78243
146 2 3.60518 6.19337 4.09913
147 2 5.08995 9.05489 1.76222
148 2 4.54185 7.79795 2.5309
149 2 13.4381 6.67871 2.59019
150 2 14.7355 6.25337 1.79471
151 2 0.77524 9.18308 14.2443
152 2 0.388115 10.6288 14.9234
153 2 14.1894 4.91997 4.56536
154 2 14.9228 6.4107 4.60147
155 2 10.8762 5.93786 7.61697
156 2 9.58879 6.53361 7.20672
157 2 12.1014 7.06547 4.8105
158 2 11.5829 7.27566 3.48345
159 2 9.70669 3.06202 7.62541
160 2 9.96186 3.35305 6.0781
161 2 3.89127 3.51534 11.556
162 2 5.31618 3.63484 11.0911
163 2 8.36256 9.80951 10.99
164 2 7.91946 11.2623 11.3115
165 2 7.80256 2.56448 14.9346
166 2 7.58248 1.21916 14.1315
167 2 6.10462 13.5421 -0.242407
168 2 4.85977 13.825 0.528199
169 2 14.4101 13.8153 10.1623
170 2 -0.0704958 13.4422 11.1966
171 2 11.7088 2.1063 6.54679
172 2 12.6961 1.18401 5.89058
173 2 10.9921 7.5299 13.3514
174 2 11.2636 8.01166 14.7268
175 2 1.57728 7.89927 5.7134
176 2 1.87051 8.36741 7.16573
177 2 11.4302 9.71213 6.20698
178 2 10.3486 10.1292 5.1128
179 2 14.4149 8.445 5.04536
180 2 0.00164071 8.8165 4.03796
181 2 1.02838 11.8189 4.67407
182 2 2.36173 10.8675 4.79517
183 2 6.32838 0.734699 10.265
184 2 5.21972 -0.301306 10.6492
185 2 12.568 9.37229 0.310345
186 2 12.8634 7.95827 0.824663
187 2 2.56428 7.41349 12.0109
188 2 3.14156 6.4193 13.0935
189 2 3.16723 6.41343 5.9805
190 2 3.10221 4.98312 5.63197
191 2 7.73547 13.1577 8.33842
192 2 8.06104 12.6116 6.87934
193 2 1.75422 3.38105 1.7562
194 2 3.25148 3.1727 2.47226
195 2 3.15037 12.6412 14.9757
196 2 3.16776 12.9566 0.983888
197 2 0.0720948 5.37286 6.52711
198 2 -0.245356 6.34024 7.61737
199 2 11.6512 14.8569 8.35832
200 2 11.802 13.9131 7.23812
201 2 2.07792 14.3411 2.56175
202 2 1.50629 0.044002 2.08403
203 2 6.3968 14.9261 13.4491
204 2 6.20534 0.425411 12.4267
205 2 0.660795 9.1318 1.85703
206 2 0.694078 10.391 2.87312
207 2 12.3708 14.0972 13.0916
208 2 12.1841 12.5232 13.366
209 2 2.09163 12.5603 7.87369
210 2 0.901668 12.2269 8.80367
211 2 13.6981 0.109016 0.335681
212 2 13.4443 14.3386 15.279
213 2 14.5376 15.2076 4.93591
214 2 0.228484 14.9795 4.13145
215 2 9.24837 13.4527 11.622
216 2 9.52013 12.2417 12.5392
217 2 12.875 7.30125 7.44426
218 2 13.1287 6.09272 6.70831
219 2 8.70364 11.2231 8.31889
220 2 9.67729 10.2938 7.51515
221 2 10.4955 10.2933 12.7118
222 2 10.0325 10.7711 14.1408
223 2 9.87115 13.0955 5.5737
224 2 8.95145 12.0108 4.93614
225 2 4.74251 0.928236 14.2575
226 2 3.48888 1.81195 13.8977
227 2 7.56401 13.1017 13.1985
228 2 6.02622 12.6782 13.2435
229 2 3.65548 5.64787 8.88705
230 2 4.53028 5.65688 10.1121
231 2 10.7483 -0.0654962 13.7661
232 2 11.7812 0.808853 13.0779
233 2 8.36482 -0.291862 3.46612
234 2 8.34757 14.0066 4.25098
235 2 5.1094 1.81781 2.95108
236 2 4.6411 2.96006 4.03817
237 2 12.5339 11.0417 9.22128
238 2 11.1841 11.2095 8.49369
239 2 8.60742 10.312 0.576946
240 2 8.69537 11.7883 0.0583599
241 2 1.42282 1.68337 7.50469
242 2 1.60998 2.65673 8.73322
243 2 8.87953 5.11923 12.1645
244 2 8.03029 6.40716 12.1505
245 2 1.95332 8.95172 9.16853
246 2 1.28006 10.1574 8.3047
247 2 11.2632 11.2403 2.79611
248 2 10.7957 9.70539 2.72449
249 2 11.5653 5.40273 -0.288322
250 2 11.1896 4.32648 14.2564
251 2 10.4204 6.65681 9.62663
252 2 10.2607 6.46258 11.0571
253 2 5.87632 10.1769 10.5904
254 2 4.94364 10.8143 9.46912
255 2 7.91802 7.6928 0.604333
256 2 7.17835 8.74025 1.63464
257 2 14.2008 7.92642 9.35992
258 2 -0.267797 8.44072 8.55252
259 2 6.16366 14.3915 3.8125
260 2 4.75946 14.0077 3.26281
261 2 6.35085 1.60272 6.90857
262 2 4.84301 1.75402 6.76165
263 2 1.34137 0.662419 9.62968
264 2 0.817817 14.7755 10.0578
265 2 10.8342 13.0339 1.10914
266 2 12.2496 13.5788 1.43103
267 2 7.99168 4.93257 10.0429
268 2 8.59208 4.87508 8.55834
269 2 -0.0863874 13.5026 5.64494
270 2 0.00602987 12.1735 6.56287
271 2 6.0476 11.6847 7.84187
272 2 4.65027 12.2574 7.8746
273 2 -0.10786 7.21382 14.4417
274 2 1.40859 7.20909 13.8607
275 2 1.10879 5.19843 12.1297
276 2 0.142322 4.18446 11.4107
277 2 0.192301 0.569522 11.8253
278 2 0.262058 0.216297 13.3227
279 2 13.325 12.966 5.76917
280 2 12.474 12.1815 6.79075
281 2 6.96454 1.33987 0.72514
282 2 6.22808 -0.0168944 1.14781
283 2 5.28424 6.95392 7.95734
284 2 5.69738 8.44349 7.79401
285 2 4.59695 2.96295 -0.156096
286 2 4.05776 3.8329 1.0606
287 2 14.2623 2.20361 0.861912
288 2 14.7961 2.02476 15.1013
289 2 7.90736 0.984376 2.41964
290 2 8.42535 2.08554 3.23522
291 2 9.33834 3.30929 9.83257
292 2 10.1754 1.88055 10.1119
293 2 1.75381 4.52695 9.90946
294 2 1.11552 4.78978 8.54253
295 2 12.2645 0.0873025 4.07993
296 2 12.0334 14.6435 5.15054
297 2 9.97133 5.30379 5.02216
298 2 9.51596 4.30903 3.95105
299 2 9.11176 6.41377 14.7882
300 2 7.57568 6.54 14.599
301 2 2.07189 2.92609 11.9449
302 2 2.69894 1.52435 11.845
303 2 10.8501 14.3815 10.4642
304 2 10.5118 -0.206863 11.478
305 2 0.274248 12.7719 0.61942
306 2 0.108425 11.2293 1.22179
307 2 9.70727 2.84376 13.3266
308 2 10.3129 3.49932 12.1129
309 2 7.16744 3.93944 3.6373
310 2 7.68964 3.77425 2.12389
311 2 2.7812 12.2345 3.34142
312 2 4.17512 12.108 2.65722
313 2 13.4252 2.63657 7.76521
314 2 14.4885 3.85196 7.85505
315 2 1.16553 7.50623 0.684607
316 2 1.80702 6.9489 2.01705
317 2 14.4305 9.58843 13.243
318 2 13.0187 10.0336 13.4694
319 2 5.70123 2.57075 8.68482
320 2 6.80813 3.05178 9.52933
321 2 5.35787 4.80808 5.12533
322 2 5.96938 3.53575 5.71789
323 2 13.0854 2.74416 13.3668
324 2 13.871 1.59988 12.7008
325 2 8.54415 7.16809 5.28465
326 2 9.76316 8.11779 5.62097
327 2 3.5805 7.58031 10.0651
328 2 3.76188 9.05652 10.3377
329 2 4.55808 11.8882 11.3243
330 2 3.56374 12.075 12.5347
331 2 0.334551 11.7965 12.6005
332 2 0.24849 12.8839 13.5924
333 2 6.35726 8.22802 5.65351
334 2 6.38531 8.12785 4.02112
335 2 10.214 9.5859 10.0692
336 2 10.6644 8.57403 11.1276
337 2 8.95214 14.8857 9.64428
338 2 7.3584 14.7538 9.70982
339 2 0.591563 15.0693 0.0182509
340 2 1.70203 14.3696 14.7724
341 2 6.4741 3.89198 0.306924
342 2 7.8908 4.74294 0.474307
343 2 13.7745 5.25403 11.174
344 2 12.6407 6.3597 11.1641
345 2 6.61181 10.3071 13.1711
346 2 7.38294 10.2018 14.4287
347 2 5.92965 6.53312 13.3142
348 2 6.65131 8.00804 13.4902
349 2 4.1508 10.9057 6.58172
350 2 3.72612 9.43762 6.27968
351 2 0.960879 1.05271 5.33877
352 2 1.48012 2.49213 5.40543
353 2 8.71011 13.4532 1.93204
354 2 8.99593 13.78 0.520382
355 2 3.28533 0.709593 5.89467
356 2 4.52263 -0.105961 5.1872
357 2 10.8957 8.12501 1.5533
358 2 9.392 8.09909 2.00114
359 2 2.85608 14.8006 10.6062
360 2 3.90293 13.7417 11.0449
361 2 6.48734 12.6937 1.54518
362 2 7.04029 11.6822 2.67807
363 2 2.24681 10.7375 14.3261
364 2 3.668 10.6767 14.8241
365 2 12.3482 3.69431 0.972113
366 2 13.2921 3.83378 2.19605
367 2 12.5073 12.8061 9.60602
368 2 12.5354 13.311 11.1419
369 2 13.9506 6.55755 12.8999
370 2 13.4462 7.1125 14.3857
371 2 11.8334 1.45816 2.05064
372 2 10.4376 0.894116 2.52875
373 2 0.844146 1.54638 0.605455
374 2 2.39804 1.38307 0.478242
375 2 7.77884 0.12269 7.66547
376 2 8.60235 1.23456 6.91956
377 2 12.4122 11.5105 0.551261
378 2 13.9301 11.2794 0.187093
379 2 13.8259 3.47873 9.96028
380 2 13.5184 3.1733 11.5056
381 2 12.9666 3.11167 5.2382
382 2 12.0906 4.05916 4.29522
383 2 5.48443 10.7696 1.07083
384 2 5.47524 10.05 -0.286949
ITEM: TIMESTEP
200
ITEM: NUMBER OF ATOMS
384
ITEM: BOX BOUNDS pp pp pp
-2.2989006347002316e-01 1.5229890063470055e+01
-2.0075667969305755e-01 1.5200756679693095e+01
-2.0224793522469486e-01 1.5202247935224751e+01
ITEM: ATOMS id type x y z
1 1 4.56014 5.63115 13.1804
2 1 14.5193 3.87462 14.0537
3 1 7.66717 10.6376 3.6865
4 1 1.62415 3.85012 4.63187
5 1 13.7044 10.045 10.2253
6 1 9.91023 0.166288 -0.0862899
7 1 13.3701 9.62477 6.11672
8 1 3.51434 13.375 7.66592
9 1 3.21524 6.37267 2.83166
10 1 5.40089 8.00919 2.40693
11 1 13.8515 6.47444 1.84948
12 1 0.526669 10.166 13.6662
13 1 14.8848 5.32637 4.78246
14 1 9.85504 6.02593 7.85817
15 1 12.1825 7.02124 3.97571
16 1 9.98756 2.87475 6.83191
17 1 4.64315 3.94096 11.2536
18 1 7.35047 10.4688 11.1867
19 1 8.27375 1.98163 14.3876
20 1 5.81427 13.7352 0.468908
21 1 -0.204732 13.1661 9.90462
22 1 12.5046 1.94349 6.03036
23 1 10.7095 6.97073 14.0135
24 1 1.98131 7.77215 6.17813
25 1 10.5464 9.25592 5.71059
26 1 15.1939 8.1508 4.57985
27 1 1.70591 11.3226 4.42421
28 1 6.00497 0.362056 10.6688
29 1 12.2159 7.9831 0.214267
30 1 2.17689 6.59369 12.3254
31 1 3.60578 5.64875 5.32466
32 1 7.71449 11.9462 7.86743
33 1 2.8924 3.68992 2.12956
34 1 2.95483 13.3091 0.153696
35 1 -0.155508 5.42732 7.60291
36 1 10.7786 14.7128 7.4588
37 1 1.40897 14.5042 2.57683
38 1 6.03969 0.455567 13.3641
39 1 0.511017 9.96665 2.60722
40 1 12.3119 13.0116 12.5847
41 1 1.02162 12.1231 8.00484
42 1 13.7822 14.1282 0.211144
43 1 -0.107941 15.0504 4.67763
44 1 8.60408 12.7245 11.7658
45 1 12.4232 6.28081 6.70052
46 1 9.77036 10.2392 8.21691
47 1 10.5349 10.9933 12.8463
48 1 8.90714 12.3655 5.28541
49 1 3.79523 1.59184 14.3355
50 1 6.49159 13.1956 13.4478
51 1 4.01859 5.97894 9.10017
52 1 11.2833 -0.0441499 12.9365
53 1 7.5804 14.143 3.45232
54 1 4.49413 2.14098 3.42313
55 1 12.2283 11.1997 8.48498
56 1 8.75977 10.307 15.1881
57 1 1.6835 1.78035 8.43314
58 1 8.51026 5.60953 11.6258
59 1 1.24383 9.12295 8.40861
60 1 10.5364 10.5164 3.31218
61 1 11.5738 4.31821 14.8056
62 1 10.6473 6.90643 10.5689
63 1 4.91976 10.0662 9.90586
64 1 7.98795 8.04902 1.36814
65 1 14.2656 7.78581 8.48965
66 1 4.97519 14.738 3.66395
67 1 5.70778 1.84577 6.77934
68 1 1.44272 0.338591 10.4788
69 1 11.3948 12.3716 1.5611
70 1 8.13479 4.28711 9.34817
71 1 15.2244 12.5446 5.65184
72 1 5.06279 11.24 7.63928
73 1 0.81438 7.47437 14.3474
74 1 1.08629 4.299 11.8382
75 1 -0.193678 0.724857 12.7799
76 1 12.5181 12.4018 6.11933
77 1 6.37411 1.03377 1.30728
78 1 5.52638 8.1238 7.19805
79 1 4.53711 3.98626 -0.173844
80 1 14.7066 1.68033 0.251778
81 1 8.69235 1.22349 2.76915
82 1 10.0704 2.59154 10.3246
83 1 1.69433 4.33631 8.78057
84 1 12.6698 15.1389 4.10691
85 1 10.208 4.75806 4.93323
86 1 8.42707 6.19286 14.994
87 1 2.7288 2.32395 12.1454
88 1 9.97719 14.6015 10.814
89 1 15.2265 11.3274 0.529465
90 1 9.70724 3.53071 12.7345
91 1 8.05314 3.84522 3.63823
92 1 3.24541 12.5669 2.72684
93 1 13.4187 3.52057 8.12763
94 1 0.774584 7.47496 1.82
95 1 13.3145 9.82592 12.7793
96 1 6.10652 2.73988 9.19954
97 1 5.72409 3.84327 5.08222
98 1 12.9975 1.92316 12.738
99 1 8.98115 7.08603 5.43769
100 1 3.04418 8.18584 10.217
101 1 4.6053 12.0749 12.0171
102 1 0.507507 12.6346 12.3139
103 1 6.74942 8.39777 4.75974
104 1 9.82605 9.50711 10.7935
105 1 7.93409 14.5914 9.00317
106 1 0.638483 14.2883 14.4338
107 1 7.42414 3.95153 0.670031
108 1 13.3987 6.71872 10.9915
109 1 6.7722 9.49493 13.6003
110 1 6.88584 6.849 13.1684
111 1 3.55289 9.96332 5.71163
112 1 1.59694 1.19093 5.72409
113 1 8.98878 13.1428 0.937725
114 1 3.83277 0.00668541 6.11146
115 1 10.4643 8.15083 2.25753
116 1 3.90243 14.1989 10.3724
117 1 5.66586 11.6393 2.19616
118 1 3.18176 11.1413 14.0786
119 1 12.4232 2.93901 1.58606
120 1 12.5323 13.4484 10.0343
121 1 13.7562 6.41085 13.7228
122 1 11.36 0.736505 2.12197
123 1 1.7937 1.28341 1.09192
124 1 8.0749 0.748496 6.66239
125 1 12.6756 10.5752 -0.191698
126 1 14.0008 3.83523 10.7326
127 1 12.6431 4.00005 4.08314
128 1 4.87565 9.64711 0.297725
129 2 4.88787 4.9303 12.4574
130 2 4.4577 5.19877 13.9417
131 2 14.3684 4.77581 14.1381
132 2 15.1896 3.79949 13.4856
133 2 7.27275 9.64125 4.25105
134 2 8.45893 10.4324 3.35598
135 2 0.909465 4.44107 4.62131
136 2 2.00248 3.80353 3.76822
137 2 14.402 10.6187 10.0796
138 2 13.4587 9.97669 11.3334
139 2 10.4574 0.473846 0.88034
140 2 9.02539 0.657961 -0.147737
141 2 13.4553 9.35187 7.1652
142 2 13.1302 10.5062 5.98763
143 2 3.66896 13.9045 8.53565
144 2 3.64866 13.9771 7.02321
145 2 3.12773 5.71614 2.2157
146 2 3.47199 5.89615 3.6542
147 2 4.92064 8.5728 1.6484
148 2 4.60778 7.30503 2.56185
149 2 13.3829 6.33022 2.74642
150 2 14.7169 6.9087 2.15847
151 2 0.535976 9.08062 13.6476
152 2 0.539474 10.3799 14.6121
153 2 14.0678 4.91913 4.4458
154 2 14.8684 6.43247 4.57547
155 2 10.687 6.27504 7.06764
156 2 9.24891 6.53539 7.14502
157 2 12.1852 7.06681 4.81827
158 2 11.347 7.56784 3.63503
159 2 9.97567 3.15985 7.7011
160 2 10.0647 3.76997 6.37976
161 2 4.02125 3.19727 11.3584
162 2 5.18775 3.73077 10.4281
163 2 8.08969 9.8463 11.2032
164 2 7.61245 11.4096 11.2605
165 2 8.22798 2.51441 -0.123504
166 2 7.43387 1.8915 13.9113
167 2 6.37198 13.5599 14.9853
168 2 4.90328 13.9879 0.299568
169 2 14.2183 13.4507 9.67863
170 2 0.000725203 13.0214 10.8578
171 2 11.4381 2.20354 6.22658
172 2 12.7905 1.04257 5.48733
173 2 10.9891 7.25159 13.001
174 2 11.2729 7.25602 14.68
175 2 1.14536 7.79219 5.55878
176 2 1.6875 8.10793 6.94674
177 2 11.5456 8.98086 5.90545
178 2 10.4148 9.87056 4.88404
179 2 14.5775 8.64503 4.91676
180 2 -0.0683814 8.69702 3.85738
181 2 1.16555 11.8093 5.14007
182 2 2.40739 10.882 4.93369
183 2 6.19733 1.14221 10.2271
184 2 5.24035 -0.104175 10.2929
185 2 12.7076 8.85539 -0.0754164
186 2 13.0497 7.51781 0.846052
187 2 2.47153 7.03244 11.5423
188 2 3.05024 6.31647 12.8387
189 2 3.03869 6.2307 5.80025
190 2 2.99506 4.96244 5.27639
191 2 7.52299 13.0571 8.04169
192 2 8.4545 12.0388 6.92729
193 2 2.43398 2.95521 1.70963
194 2 3.56816 3.12176 2.77604
195 2 2.81344 12.5775 14.9767
196 2 2.8856 13.0842 1.2831
197 2 -0.217921 5.48321 6.2993
198 2 15.0078 6.40895 7.9786
199 2 11.5961 -0.189336 7.68355
200 2 11.287 13.9599 7.35973
201 2 2.24128 14.1207 2.84427
202 2 1.5431 -0.117195 1.94019
203 2 6.11674 14.8821 13.2634
204 2 6.06053 0.661579 12.3905
205 2 1.10358 9.19537 2.4117
206 2 0.815311 10.4401 3.27603
207 2 11.8217 13.9918 12.5084
208 2 11.7611 12.2226 12.8442
209 2 2.06042 12.7037 8.06113
210 2 0.432012 12.5228 8.61748
211 2 13.7613 15.0353 0.184199
212 2 13.4159 14.0479 14.701
213 2 14.4667 -0.158398 4.27241
214 2 0.470378 14.8355 3.80603
215 2 9.02514 13.5957 11.3751
216 2 9.25913 12.2592 12.1756
217 2 12.9597 6.82475 7.25109
218 2 13.0158 5.47387 6.7845
219 2 8.92253 10.7546 8.14377
220 2 9.79999 9.76531 7.39354
221 2 10.4415 10.2661 12.1323
222 2 10.051 10.8519 13.5858
223 2 9.83372 12.1668 5.14319
224 2 8.3475 11.3654 5.02119
225 2 4.56614 1.10562 14.0803
226 2 3.28478 1.68583 13.5434
227 2 7.44133 13.0623 13.0636
228 2 5.79056 12.4872 13.0117
229 2 3.27649 5.33097 9.03385
230 2 4.38881 5.39033 9.71828
231 2 10.8369 0.299163 13.8244
232 2 12.0049 0.755795 12.736
233 2 7.96443 15.0049 3.61453
234 2 8.15334 13.6633 4.23167
235 2 5.08525 1.54251 2.84299
236 2 5.1143 2.61576 3.87099
237 2 12.5729 10.7996 9.34194
238 2 11.336 10.8226 8.38107
239 2 8.37917 9.59871 0.296064
240 2 8.57113 11.0468 0.159372
241 2 1.47087 1.56011 7.52395
242 2 1.81908 2.71875 8.54515
243 2 8.93701 4.96945 12.2096
244 2 7.86178 5.99924 12.2068
245 2 1.85721 8.7851 9.11899
246 2 1.32566 10.1416 8.18474
247 2 10.7928 11.3832 2.97324
248 2 10.414 9.65441 2.78183
249 2 11.0847 5.23245 14.8661
250 2 10.9701 3.94797 14.0286
251 2 10.7676 6.30217 9.80746
252 2 9.65308 6.47936 10.9333
253 2 5.7847 10.0541 10.1278
254 2 4.78855 10.7237 9.05863
255 2 7.98916 7.03471 0.556378
256 2 7.05108 7.97557 1.75215
257 2 13.9465 7.33032 9.31085
258 2 15.076 8.24606 8.82669
259 2 5.95166 14.4775 3.86622
260 2 4.51116 13.857 3.45557
261 2 6.55631 1.42995 6.83039
262 2 4.95111 1.17744 6.55406
263 2 1.55689 0.788485 9.61669
264 2 0.74311 15.01 10.2905
265 2 10.5955 12.9039 1.16903
266 2 12.0735 13.1402 1.58926
267 2 8.32457 4.72567 10.1742
268 2 8.57859 4.7336 8.62411
269 2 -0.163695 13.5543 5.37564
270 2 0.295188 12.5924 6.46541
271 2 6.02457 11.483 7.49205
272 2 4.60895 12.1062 7.61213
273 2 0.0572805 7.01268 14.4895
274 2 1.04909 7.0759 13.5784
275 2 1.41402 5.22361 11.8585
276 2 0.336687 4.35916 11.2403
277 2 0.470641 0.645267 11.9532
278 2 0.169232 0.40288 13.5409
279 2 13.4435 12.3354 5.87928
280 2 12.5229 12.1161 7.06934
281 2 6.071 1.3491 0.59257
282 2 6.21166 0.139565 1.14845
283 2 5.60811 7.23146 7.71269
284 2 5.49074 8.78437 7.72043
285 2 4.33251 3.04512 14.8165
286 2 3.86832 4.09752 0.579084
287 2 14.1086 2.0799 0.792007
288 2 14.7916 2.38611 14.9786
289 2 8.01016 1.28727 1.98808
290 2 8.5839 1.90477 3.44841
291 2 9.59855 3.2774 9.81534
292 2 10.3843 1.65484 10.0426
293 2 1.29008 4.27178 9.77987
294 2 1.06199 5.09192 8.39533
295 2 11.9401 0.0977872 3.23805
296 2 12.4481 14.2733 4.49777
297 2 10.0328 5.80921 5.04321
298 2 9.44406 4.37205 4.26925
299 2 9.3425 6.66734 14.7772
300 2 7.69931 6.24504 14.214
301 2 2.04087 3.05524 11.9931
302 2 2.48206 1.68614 11.5195
303 2 10.8372 14.4718 10.1249
304 2 10.5834 15.0239 11.4433
305 2 15.1844 12.311 0.664239
306 2 0.150537 10.793 1.32795
307 2 9.26228 2.8908 13.4361
308 2 10.0471 2.901 12.0109
309 2 7.20137 4.01317 4.17432
310 2 7.86901 4.04289 2.60443
311 2 2.67209 12.0023 3.31509
312 2 4.1113 12.1034 2.66212
313 2 13.2739 2.6979 7.63732
314 2 14.2305 3.946 7.8948
315 2 0.909248 7.47961 0.831268
316 2 1.61545 7.22164 2.23994
317 2 14.3401 9.87403 13.126
318 2 12.6677 10.2089 13.405
319 2 5.95242 2.52263 8.29167
320 2 6.90361 3.33842 9.23138
321 2 4.96931 4.43327 5.03411
322 2 5.63305 3.15496 5.92953
323 2 13.0025 2.41869 13.4559
324 2 13.8874 1.49562 12.8091
325 2 8.10192 7.38424 5.01168
326 2 9.46003 7.90514 5.52228
327 2 3.59507 7.34963 9.68041
328 2 3.70888 8.85849 10.2962
329 2 4.56893 11.4049 11.2632
330 2 4.00914 11.7762 12.8224
331 2 0.319889 11.8192 12.8296
332 2 0.48797 13.2963 12.9862
333 2 6.19512 8.44462 5.581
334 2 6.28667 8.18118 4.01204
335 2 9.69233 9.93916 9.90836
336 2 10.2267 8.65048 10.4282
337 2 8.73703 14.8917 9.61587
338 2 6.98941 14.8479 9.59916
339 2 -0.0396223 14.33 15.1514
340 2 1.47224 13.9216 14.6756
341 2 6.36411 4.15732 0.658336
342 2 7.7136 4.90181 0.246532
343 2 13.5439 5.71684 10.8132
344 2 12.3453 6.83296 11.0929
345 2 6.8162 10.1049 12.7267
346 2 7.56139 9.73318 13.9618
347 2 6.00322 6.42871 13.17
348 2 6.78171 7.83311 13.2888
349 2 3.77491 10.3753 6.48365
350 2 2.84383 9.23352 5.83713
351 2 0.987199 0.666351 5.34488
352 2 1.43335 2.12962 5.20146
353 2 8.59525 13.1423 1.85151
354 2 9.17938 14.0651 0.693656
355 2 3.01552 0.487381 5.86707
356 2 4.3208 -0.192638 5.23974
357 2 11.1388 8.14972 1.50782
358 2 9.59714 8.06202 1.8981
359 2 3.05583 14.7962 10.533
360 2 3.85702 13.4455 11.0251
361 2 5.80284 12.4498 1.79802
362 2 6.41179 11.5583 2.81446
363 2 2.57554 10.4863 13.6654
364 2 3.66647 10.2833 14.5649
365 2 11.9834 3.62025 0.892383
366 2 12.585 3.2686 2.43414
367 2 12.2496 12.7009 9.40048
368 2 12.311 13.3443 11.0126
369 2 13.6963 6.50636 12.9266
370 2 12.8787 6.63097 14.0366
371 2 11.7674 1.78672 1.92411
372 2 10.4653 0.949649 2.43524
373 2 0.869899 1.5421 0.740726
374 2 2.36956 1.01657 0.31868
375 2 8.18312 0.239531 7.45396
376 2 8.81396 1.46518 6.50084
377 2 12.3607 11.1975 0.396739
378 2 13.8061 10.7661 0.0482871
379 2 13.8007 3.68928 9.6528
380 2 13.478 3.16601 11.1457
381 2 12.7842 3.29044 4.76436
382 2 11.7165 4.44505 4.27547
383 2 5.36931 10.3376 0.704455
384 2 5.33712 9.33428 14.9048
ITEM: TIMESTEP
400
ITEM: NUMBER OF ATOMS
384
ITEM: BOX BOUNDS pp pp pp
-1.7792508045011868e-01 1.5177925080450148e+01
-7.2874872329593998e-02 1.5072874872329617e+01
-1.0143935956222627e-01 1.5101439359562306e+01
ITEM: ATOMS id type x y z
1 1 4.46587 5.55604 12.663
2 1 14.8724 3.51255 14.0461
3 1 7.2636 10.4655 3.59481
4 1 1.71082 3.44595 4.37447
5 1 13.6834 9.72005 10.1049
6 1 9.42576 -0.022872 14.9295
7 1 13.3874 9.28177 6.44169
8 1 3.49765 13.0148 7.86748
9 1 3.43938 6.03625 2.4585
10 1 5.53159 7.51392 2.06009
11 1 14.0848 6.83128 2.06102
12 1 0.594614 10.1232 13.7228
13 1 -0.0913468 5.26243 4.71595
14 1 9.56348 6.38831 8.17855
15 1 12.2705 6.59866 4.37774
16 1 10.2829 2.84828 6.81643
17 1 4.49045 3.95834 10.65
18 1 7.02036 10.3797 11.0709
19 1 7.90183 2.06161 14.3783
20 1 5.79655 13.3399 0.508984
21 1 -0.0232603 13.1789 9.76148
22 1 12.0733 2.03352 5.26463
23 1 10.7709 6.50274 13.5025
24 1 1.94749 7.83646 6.25301
25 1 10.6717 9.05353 5.7584
26 1 15.0158 8.01395 4.75585
27 1 1.64489 11.1363 4.43024
28 1 5.93314 0.604003 10.4824
29 1 12.1387 7.73322 0.292894
30 1 2.09532 6.66396 12.0367
31 1 3.36592 5.5808 5.19871
32 1 7.60671 12.0236 7.82176
33 1 3.2843 3.48739 1.70295
34 1 3.18601 13.0187 0.181465
35 1 -0.1643 4.99355 7.3509
36 1 10.7714 14.5395 7.36473
37 1 1.11972 14.3769 2.05373
38 1 6.0055 0.804859 13.1979
39 1 0.350057 9.65688 2.67252
40 1 12.2876 13.0961 12.7545
41 1 1.20501 11.7894 8.07987
42 1 13.3128 13.6932 -0.00930037
43 1 15.083 14.8789 4.28828
44 1 8.78005 12.7776 11.8547
45 1 12.0116 5.97351 7.14509
46 1 9.80668 10.2443 7.99023
47 1 10.3995 10.8147 12.6775
48 1 8.58256 12.114 5.37306
49 1 3.74397 1.67042 14.1647
50 1 6.42114 13.3237 13.1806
51 1 4.06193 6.04143 8.5433
52 1 11.221 0.274769 12.5063
53 1 7.3641 13.8025 3.53741
54 1 4.59401 1.99193 3.45879
55 1 12.1313 11.3386 8.68179
56 1 9.03828 10.2027 -0.0589569
57 1 2.21381 1.5143 8.32068
58 1 8.66929 5.26192 11.665
59 1 0.946677 9.22139 8.5186
60 1 10.0316 10.4112 3.5709
61 1 11.8279 3.95968 14.067
62 1 10.2647 6.92011 10.4963
63 1 4.73903 9.91047 9.6008
64 1 8.28793 7.88495 1.51351
65 1 14.3297 7.58845 8.00832
66 1 4.81046 14.4979 3.59302
67 1 5.77595 1.62628 6.60562
68 1 1.664 0.178852 10.3544
69 1 11.4418 12.5066 1.65522
70 1 8.40452 3.95595 9.15897
71 1 -0.108828 12.4922 5.81219
72 1 5.30908 11.0234 7.29069
73 1 0.734102 7.52085 14.2592
74 1 0.578452 4.25613 11.6039
75 1 0.0349672 1.09983 12.4662
76 1 12.4241 12.3733 5.99142
77 1 6.31885 0.747565 1.34405
78 1 5.84907 7.97199 7.42943
79 1 4.8447 4.09411 14.8772
80 1 14.3569 1.21964 0.459223
81 1 8.35569 1.0722 2.85521
82 1 10.0871 2.22578 10.3989
83 1 1.84642 4.2171 8.89056
84 1 12.3536 14.8544 3.95555
85 1 9.92278 4.70721 5.04103
86 1 8.28327 5.84541 14.9657
87 1 2.62247 2.30785 11.5716
88 1 10.1906 14.5445 10.3205
89 1 14.7746 11.2585 0.740685
90 1 9.71202 3.0904 12.8095
91 1 7.75574 3.48841 3.56774
92 1 3.33921 12.4973 2.90927
93 1 13.0558 3.69066 7.74705
94 1 1.35514 7.64232 1.55989
95 1 13.316 9.47375 12.6875
96 1 6.14226 2.80081 8.92724
97 1 5.78629 3.94347 5.33222
98 1 12.7657 2.26373 12.3506
99 1 8.73044 7.11556 5.82565
100 1 2.8744 8.0308 9.87627
101 1 4.37558 11.7806 11.7988
102 1 1.15733 12.096 11.7624
103 1 6.3751 8.29518 4.7613
104 1 9.30135 9.41469 10.5738
105 1 7.97992 14.4905 8.68689
106 1 0.936405 14.075 14.1887
107 1 7.00016 3.91935 1.23476
108 1 12.9254 6.69802 10.5983
109 1 6.94056 9.37438 13.4951
110 1 6.79581 6.76636 12.956
111 1 3.72841 9.70588 5.25
112 1 1.45385 1.13766 5.70985
113 1 8.69177 12.8639 1.09383
114 1 3.6453 14.8652 6.17432
115 1 10.7489 8.05337 2.60503
116 1 3.87756 14.0825 10.2921
117 1 5.49019 11.1612 1.8687
118 1 3.15124 10.9291 14.0251
119 1 12.4032 2.84141 1.34558
120 1 12.6399 13.4541 10.1126
121 1 13.852 6.60285 13.3542
122 1 10.8393 0.658674 2.15992
123 1 1.84412 1.50281 0.922326
124 1 8.29748 0.902861 6.13274
125 1 12.3495 10.2782 0.0253895
126 1 13.4695 4.15885 10.6932
127 1 13.0687 4.21043 3.88456
128 1 4.68728 9.31463 0.023636
129 2 4.36949 4.76665 12.0807
130 2 4.6896 5.21489 13.5505
131 2 14.4772 4.19589 14.6311
132 2 0.0221206 4.21633 13.4946
133 2 7.11278 9.66735 4.07684
134 2 8.17514 10.4118 3.17099
135 2 1.13635 4.16427 4.37957
136 2 1.99472 3.25908 3.48713
137 2 14.6211 10.0053 9.98234
138 2 13.4372 9.80884 11.0668
139 2 10.0691 0.135709 0.576256
140 2 8.86356 0.722987 14.7187
141 2 13.8023 8.82751 7.32975
142 2 13.6269 10.2772 6.6036
143 2 3.52353 13.7614 8.53651
144 2 3.49658 13.4751 7.05704
145 2 3.22793 5.23021 2.04466
146 2 3.39534 5.78506 3.29494
147 2 5.34566 8.01714 1.39022
148 2 4.73508 6.90217 2.3981
149 2 13.8319 7.23645 2.92948
150 2 15.0392 7.03126 2.0359
151 2 0.884207 8.94424 13.957
152 2 0.0837573 10.442 14.4153
153 2 14.4645 4.75766 4.58242
154 2 -0.112247 6.17683 4.52904
155 2 10.4677 6.10947 7.62173
156 2 8.91099 6.74506 7.39002
157 2 11.8315 6.43471 5.34252
158 2 11.6207 7.03995 3.81495
159 2 10.2931 3.27343 7.59446
160 2 10.0825 3.74463 6.25278
161 2 3.84159 3.10031 10.7702
162 2 5.25121 3.61816 10.1621
163 2 7.68703 9.82216 10.8217
164 2 7.4976 11.2167 11.2274
165 2 7.6493 2.5734 -0.0971474
166 2 7.16962 1.56719 14.0456
167 2 6.27446 13.1935 14.9513
168 2 4.76068 13.195 0.393239
169 2 14.4357 13.4976 9.98332
170 2 0.336189 12.8005 10.7364
171 2 11.3838 2.19274 5.93988
172 2 12.1577 1.10105 5.00507
173 2 10.8275 6.31278 12.5433
174 2 11.2196 7.16501 14.0406
175 2 1.11066 7.65576 5.79546
176 2 1.6064 7.9678 7.15923
177 2 11.5959 9.23984 6.00072
178 2 10.4416 9.46725 4.78476
179 2 14.3469 8.29242 5.41911
180 2 15.1316 8.65981 3.91383
181 2 1.01828 11.6206 4.98014
182 2 2.31691 10.6689 4.82925
183 2 5.8321 1.34956 9.72658
184 2 5.08124 14.9735 10.3579
185 2 12.1836 8.83705 0.247102
186 2 12.7201 7.31565 1.03965
187 2 2.38001 7.39781 11.3878
188 2 2.80358 6.08231 12.2726
189 2 2.8398 6.20299 5.55884
190 2 2.8631 4.83221 5.09594
191 2 7.59385 12.9134 8.34754
192 2 7.77087 12.2874 6.91378
193 2 2.48551 2.90987 1.34292
194 2 3.86823 2.83846 2.14664
195 2 3.19804 12.286 14.625
196 2 2.92401 12.7544 1.05615
197 2 0.182211 5.11948 6.46533
198 2 -0.0808817 5.86885 7.46843
199 2 11.3544 15.0125 8.02439
200 2 11.4284 14.2038 6.68345
201 2 2.05565 14.054 2.15897
202 2 1.43378 -0.0588316 1.48318
203 2 6.09908 14.9601 13.2464
204 2 5.76267 0.635767 12.0824
205 2 1.179 9.0299 2.42932
206 2 0.972876 10.4038 3.2979
207 2 11.7287 13.8859 12.7674
208 2 11.5343 12.5776 12.7187
209 2 1.93736 12.3463 8.02098
210 2 0.604607 12.2469 8.90753
211 2 13.8156 14.476 0.0385332
212 2 12.7015 13.5343 14.4857
213 2 13.9762 15.0075 4.1492
214 2 0.016478 14.6899 3.45168
215 2 9.08758 13.2135 11.1197
216 2 9.42143 12.0382 12.1532
217 2 12.3875 6.43982 7.98451