ITEM: TIMESTEP
0
ITEM: NUMBER OF ATOMS
384
ITEM: BOX BOUNDS pp pp pp
-3.1180958401302572e-01 1.5311809584013066e+01
-3.1180958401302572e-01 1.5311809584013066e+01
-3.1180958401302572e-01 1.5311809584013066e+01
ITEM: ATOMS id type x y z
1 1 4.57679 5.50123 13.6944
2 1 14.8875 3.66367 14.1079
3 1 8.20115 10.8513 3.91518
4 1 1.55859 4.11103 4.68534
5 1 14.0046 11.0534 10.4291
6 1 10.1562 -0.0244194 -0.0179537
7 1 13.1461 9.78511 5.92123
8 1 3.48566 13.6848 7.87681
9 1 3.32305 6.30373 3.20589
10 1 5.30735 8.37688 2.36991
11 1 13.7801 6.32188 1.70807
12 1 0.692367 10.1945 14.1186
13 1 15.0627 5.43363 4.6639
14 1 9.98456 5.97612 7.92121
15 1 12.4056 7.19481 3.96576
16 1 9.83562 2.64919 6.79506
17 1 4.60459 4.17249 11.4106
18 1 7.55062 10.3381 11.1669
19 1 8.27543 1.89543 14.4455
20 1 5.83253 14.0038 0.549654
21 1 -0.277952 13.5963 10.2649
22 1 12.6457 2.09652 6.28487
23 1 10.7129 7.40871 14.2399
24 1 2.2119 7.88472 6.40809
25 1 10.4542 9.69036 5.97773
26 1 -0.282536 8.22967 4.81222
27 1 1.6652 11.2607 4.20606
28 1 6.17365 -0.094545 10.725
29 1 12.1932 8.4542 0.381712
30 1 2.29814 6.67565 12.652
31 1 3.74006 5.65533 5.77839
32 1 7.64075 12.3667 7.75101
33 1 2.57949 3.81144 2.08856
34 1 3.31976 13.3432 0.0677147
35 1 -0.0967938 5.37115 7.46928
36 1 11.1426 14.5448 7.59235
37 1 1.26174 14.8074 2.57217
38 1 6.41618 0.335516 13.3898
39 1 0.207637 9.92258 2.18818
40 1 12.6731 13.1901 12.8323
41 1 1.29363 11.9761 7.9846
42 1 13.2286 14.8362 0.439531
43 1 -0.123887 15.1905 5.01064
44 1 8.80795 12.7708 12.0788
45 1 12.4172 6.75949 6.79319
46 1 9.49869 10.6014 8.40823
47 1 10.544 10.9934 13.3575
48 1 8.99001 12.8372 5.44675
49 1 4.04829 1.51716 14.6149
50 1 6.69928 13.1999 13.7041
51 1 4.43379 6.10378 9.26553
52 1 11.4216 -0.0969869 13.0672
53 1 8.10878 14.4288 3.40524
54 1 4.3962 2.37166 3.28729
55 1 12.1316 11.4523 8.45349
56 1 8.7458 10.8517 -0.213292
57 1 1.53862 1.7361 8.48855
58 1 8.69585 5.89847 11.616
59 1 1.22107 9.19196 8.49846
60 1 10.635 10.5731 3.14594
61 1 11.4957 4.51089 15.2148
62 1 10.9209 6.7156 10.446
63 1 4.94638 10.4223 10.3546
64 1 7.94749 8.55464 1.09697
65 1 14.5919 7.80968 8.4877
66 1 5.26248 14.7619 3.62401
67 1 5.62202 2.26942 6.97039
68 1 1.29568 -0.0251437 10.348
69 1 11.6689 12.7598 1.5126
70 1 8.10674 4.34492 9.29769
71 1 15.2574 12.5827 5.71394
72 1 5.13758 11.4238 7.95676
73 1 0.807368 7.59384 14.5622
74 1 1.07308 4.35508 11.6836
75 1 -0.103901 0.899318 12.6958
76 1 12.4336 12.7126 5.99741
77 1 6.5124 0.898083 1.44852
78 1 5.22926 7.74021 7.34722
79 1 4.69818 3.85809 0.25821
80 1 14.6318 1.53081 0.260033
81 1 8.7843 1.26425 2.88569
82 1 10.1715 2.86217 10.2074
83 1 1.97586 4.56417 8.94346
84 1 12.6683 15.2799 4.82665
85 1 10.1623 4.44247 4.67024
86 1 8.26116 6.29332 15.2182
87 1 2.75694 2.33071 12.3211
88 1 10.1168 15.0402 10.6766
89 1 0.0214213 11.8389 0.424274
90 1 9.92368 3.73613 12.9889
91 1 7.93039 3.8304 3.09944
92 1 3.45334 12.7245 2.72154
93 1 13.7442 3.34545 8.32257
94 1 1.06378 7.50528 1.70711
95 1 13.5608 9.51663 12.896
96 1 6.16563 2.34739 9.6158
97 1 6.00658 4.12469 4.96415
98 1 13.0409 2.11594 12.6389
99 1 9.44842 7.22402 5.61094
100 1 3.08802 8.31472 10.412
101 1 4.27645 12.564 12.0172
102 1 0.247817 12.7339 12.6695
103 1 6.92237 8.32243 4.80264
104 1 10.2096 9.4039 11.0142
105 1 8.10819 14.6608 9.11245
106 1 0.724807 14.5893 14.8093
107 1 7.38606 3.87893 0.612739
108 1 13.59 6.17467 11.3541
109 1 6.57455 9.82429 14.0409
110 1 6.72525 7.05567 13.1783
111 1 3.66994 10.3273 5.96103
112 1 1.66543 1.60839 5.77048
113 1 9.05834 13.0173 1.11863
114 1 4.11235 0.213829 6.02437
115 1 10.3679 8.11545 2.36753
116 1 3.8208 14.5044 10.4834
117 1 6.27696 11.8524 2.07137
118 1 3.1417 11.1769 14.1451
119 1 12.971 3.21476 1.56998
120 1 12.4061 13.5738 10.1924
121 1 14.0948 6.56232 13.8874
122 1 11.4172 0.689063 2.37021
123 1 1.65778 1.52802 1.12949
124 1 7.74882 0.714644 6.86752
125 1 13.0368 10.8806 0.0461404
126 1 14.1536 3.59273 10.8941
127 1 12.9937 3.74289 4.44237
128 1 4.93288 10.2326 0.481908
129 2 4.52916 4.87676 12.9369
130 2 4.69703 5.06241 14.547
131 2 14.6886 4.58995 14.3163
132 2 0.0945933 3.63697 13.6264
133 2 7.74221 10.0755 4.24889
134 2 8.99342 10.7228 3.34745
135 2 0.788771 4.72927 4.53377
136 2 1.81069 3.95163 3.77685
137 2 14.4008 11.9252 10.4575
138 2 13.9069 10.7269 11.3647
139 2 10.6725 0.201823 0.765773
140 2 9.47367 0.652849 -0.0632908
141 2 13.5922 9.97565 6.76473
142 2 13.2152 10.5455 5.32572
143 2 3.67781 14.0964 8.7488
144 2 3.53939 14.3835 7.27865
145 2 3.09567 5.45978 2.78243
146 2 3.60518 6.19337 4.09913
147 2 5.08995 9.05489 1.76222
148 2 4.54185 7.79795 2.5309
149 2 13.4381 6.67871 2.59019
150 2 14.7355 6.25337 1.79471
151 2 0.77524 9.18308 14.2443
152 2 0.388115 10.6288 14.9234
153 2 14.1894 4.91997 4.56536
154 2 14.9228 6.4107 4.60147
155 2 10.8762 5.93786 7.61697
156 2 9.58879 6.53361 7.20672
157 2 12.1014 7.06547 4.8105
158 2 11.5829 7.27566 3.48345
159 2 9.70669 3.06202 7.62541
160 2 9.96186 3.35305 6.0781
161 2 3.89127 3.51534 11.556
162 2 5.31618 3.63484 11.0911
163 2 8.36256 9.80951 10.99
164 2 7.91946 11.2623 11.3115
165 2 7.80256 2.56448 14.9346
166 2 7.58248 1.21916 14.1315
167 2 6.10462 13.5421 -0.242407
168 2 4.85977 13.825 0.528199
169 2 14.4101 13.8153 10.1623
170 2 -0.0704958 13.4422 11.1966
171 2 11.7088 2.1063 6.54679
172 2 12.6961 1.18401 5.89058
173 2 10.9921 7.5299 13.3514
174 2 11.2636 8.01166 14.7268
175 2 1.57728 7.89927 5.7134
176 2 1.87051 8.36741 7.16573
177 2 11.4302 9.71213 6.20698
178 2 10.3486 10.1292 5.1128
179 2 14.4149 8.445 5.04536
180 2 0.00164071 8.8165 4.03796
181 2 1.02838 11.8189 4.67407
182 2 2.36173 10.8675 4.79517
183 2 6.32838 0.734699 10.265
184 2 5.21972 -0.301306 10.6492
185 2 12.568 9.37229 0.310345
186 2 12.8634 7.95827 0.824663
187 2 2.56428 7.41349 12.0109
188 2 3.14156 6.4193 13.0935
189 2 3.16723 6.41343 5.9805
190 2 3.10221 4.98312 5.63197
191 2 7.73547 13.1577 8.33842
192 2 8.06104 12.6116 6.87934
193 2 1.75422 3.38105 1.7562
194 2 3.25148 3.1727 2.47226
195 2 3.15037 12.6412 14.9757
196 2 3.16776 12.9566 0.983888
197 2 0.0720948 5.37286 6.52711
198 2 -0.245356 6.34024 7.61737
199 2 11.6512 14.8569 8.35832
200 2 11.802 13.9131 7.23812
201 2 2.07792 14.3411 2.56175
202 2 1.50629 0.044002 2.08403
203 2 6.3968 14.9261 13.4491
204 2 6.20534 0.425411 12.4267
205 2 0.660795 9.1318 1.85703
206 2 0.694078 10.391 2.87312
207 2 12.3708 14.0972 13.0916
208 2 12.1841 12.5232 13.366
209 2 2.09163 12.5603 7.87369
210 2 0.901668 12.2269 8.80367
211 2 13.6981 0.109016 0.335681
212 2 13.4443 14.3386 15.279
213 2 14.5376 15.2076 4.93591
214 2 0.228484 14.9795 4.13145
215 2 9.24837 13.4527 11.622
216 2 9.52013 12.2417 12.5392
217 2 12.875 7.30125 7.44426
218 2 13.1287 6.09272 6.70831
219 2 8.70364 11.2231 8.31889
220 2 9.67729 10.2938 7.51515
221 2 10.4955 10.2933 12.7118
222 2 10.0325 10.7711 14.1408
223 2 9.87115 13.0955 5.5737
224 2 8.95145 12.0108 4.93614
225 2 4.74251 0.928236 14.2575
226 2 3.48888 1.81195 13.8977
227 2 7.56401 13.1017 13.1985
228 2 6.02622 12.6782 13.2435
229 2 3.65548 5.64787 8.88705
230 2 4.53028 5.65688 10.1121
231 2 10.7483 -0.0654962 13.7661
232 2 11.7812 0.808853 13.0779
233 2 8.36482 -0.291862 3.46612
234 2 8.34757 14.0066 4.25098
235 2 5.1094 1.81781 2.95108
236 2 4.6411 2.96006 4.03817
237 2 12.5339 11.0417 9.22128
238 2 11.1841 11.2095 8.49369
239 2 8.60742 10.312 0.576946
240 2 8.69537 11.7883 0.0583599
241 2 1.42282 1.68337 7.50469
242 2 1.60998 2.65673 8.73322
243 2 8.87953 5.11923 12.1645
244 2 8.03029 6.40716 12.1505
245 2 1.95332 8.95172 9.16853
246 2 1.28006 10.1574 8.3047
247 2 11.2632 11.2403 2.79611
248 2 10.7957 9.70539 2.72449
249 2 11.5653 5.40273 -0.288322
250 2 11.1896 4.32648 14.2564
251 2 10.4204 6.65681 9.62663
252 2 10.2607 6.46258 11.0571
253 2 5.87632 10.1769 10.5904
254 2 4.94364 10.8143 9.46912
255 2 7.91802 7.6928 0.604333
256 2 7.17835 8.74025 1.63464
257 2 14.2008 7.92642 9.35992
258 2 -0.267797 8.44072 8.55252
259 2 6.16366 14.3915 3.8125
260 2 4.75946 14.0077 3.26281
261 2 6.35085 1.60272 6.90857
262 2 4.84301 1.75402 6.76165
263 2 1.34137 0.662419 9.62968
264 2 0.817817 14.7755 10.0578
265 2 10.8342 13.0339 1.10914
266 2 12.2496 13.5788 1.43103
267 2 7.99168 4.93257 10.0429
268 2 8.59208 4.87508 8.55834
269 2 -0.0863874 13.5026 5.64494
270 2 0.00602987 12.1735 6.56287
271 2 6.0476 11.6847 7.84187
272 2 4.65027 12.2574 7.8746
273 2 -0.10786 7.21382 14.4417
274 2 1.40859 7.20909 13.8607
275 2 1.10879 5.19843 12.1297
276 2 0.142322 4.18446 11.4107
277 2 0.192301 0.569522 11.8253
278 2 0.262058 0.216297 13.3227
279 2 13.325 12.966 5.76917
280 2 12.474 12.1815 6.79075
281 2 6.96454 1.33987 0.72514
282 2 6.22808 -0.0168944 1.14781
283 2 5.28424 6.95392 7.95734
284 2 5.69738 8.44349 7.79401
285 2 4.59695 2.96295 -0.156096
286 2 4.05776 3.8329 1.0606
287 2 14.2623 2.20361 0.861912
288 2 14.7961 2.02476 15.1013
289 2 7.90736 0.984376 2.41964
290 2 8.42535 2.08554 3.23522
291 2 9.33834 3.30929 9.83257
292 2 10.1754 1.88055 10.1119
293 2 1.75381 4.52695 9.90946
294 2 1.11552 4.78978 8.54253
295 2 12.2645 0.0873025 4.07993
296 2 12.0334 14.6435 5.15054
297 2 9.97133 5.30379 5.02216
298 2 9.51596 4.30903 3.95105
299 2 9.11176 6.41377 14.7882
300 2 7.57568 6.54 14.599
301 2 2.07189 2.92609 11.9449
302 2 2.69894 1.52435 11.845
303 2 10.8501 14.3815 10.4642
304 2 10.5118 -0.206863 11.478
305 2 0.274248 12.7719 0.61942
306 2 0.108425 11.2293 1.22179
307 2 9.70727 2.84376 13.3266
308 2 10.3129 3.49932 12.1129
309 2 7.16744 3.93944 3.6373
310 2 7.68964 3.77425 2.12389
311 2 2.7812 12.2345 3.34142
312 2 4.17512 12.108 2.65722
313 2 13.4252 2.63657 7.76521
314 2 14.4885 3.85196 7.85505
315 2 1.16553 7.50623 0.684607
316 2 1.80702 6.9489 2.01705
317 2 14.4305 9.58843 13.243
318 2 13.0187 10.0336 13.4694
319 2 5.70123 2.57075 8.68482
320 2 6.80813 3.05178 9.52933
321 2 5.35787 4.80808 5.12533
322 2 5.96938 3.53575 5.71789
323 2 13.0854 2.74416 13.3668
324 2 13.871 1.59988 12.7008
325 2 8.54415 7.16809 5.28465
326 2 9.76316 8.11779 5.62097
327 2 3.5805 7.58031 10.0651
328 2 3.76188 9.05652 10.3377
329 2 4.55808 11.8882 11.3243
330 2 3.56374 12.075 12.5347
331 2 0.334551 11.7965 12.6005
332 2 0.24849 12.8839 13.5924
333 2 6.35726 8.22802 5.65351
334 2 6.38531 8.12785 4.02112
335 2 10.214 9.5859 10.0692
336 2 10.6644 8.57403 11.1276
337 2 8.95214 14.8857 9.64428
338 2 7.3584 14.7538 9.70982
339 2 0.591563 15.0693 0.0182509
340 2 1.70203 14.3696 14.7724
341 2 6.4741 3.89198 0.306924
342 2 7.8908 4.74294 0.474307
343 2 13.7745 5.25403 11.174
344 2 12.6407 6.3597 11.1641
345 2 6.61181 10.3071 13.1711
346 2 7.38294 10.2018 14.4287
347 2 5.92965 6.53312 13.3142
348 2 6.65131 8.00804 13.4902
349 2 4.1508 10.9057 6.58172
350 2 3.72612 9.43762 6.27968
351 2 0.960879 1.05271 5.33877
352 2 1.48012 2.49213 5.40543
353 2 8.71011 13.4532 1.93204
354 2 8.99593 13.78 0.520382
355 2 3.28533 0.709593 5.89467
356 2 4.52263 -0.105961 5.1872
357 2 10.8957 8.12501 1.5533
358 2 9.392 8.09909 2.00114
359 2 2.85608 14.8006 10.6062
360 2 3.90293 13.7417 11.0449
361 2 6.48734 12.6937 1.54518
362 2 7.04029 11.6822 2.67807
363 2 2.24681 10.7375 14.3261
364 2 3.668 10.6767 14.8241
365 2 12.3482 3.69431 0.972113
366 2 13.2921 3.83378 2.19605
367 2 12.5073 12.8061 9.60602
368 2 12.5354 13.311 11.1419
369 2 13.9506 6.55755 12.8999
370 2 13.4462 7.1125 14.3857
371 2 11.8334 1.45816 2.05064
372 2 10.4376 0.894116 2.52875
373 2 0.844146 1.54638 0.605455
374 2 2.39804 1.38307 0.478242
375 2 7.77884 0.12269 7.66547
376 2 8.60235 1.23456 6.91956
377 2 12.4122 11.5105 0.551261
378 2 13.9301 11.2794 0.187093
379 2 13.8259 3.47873 9.96028
380 2 13.5184 3.1733 11.5056
381 2 12.9666 3.11167 5.2382
382 2 12.0906 4.05916 4.29522
383 2 5.48443 10.7696 1.07083
384 2 5.47524 10.05 -0.286949
ITEM: TIMESTEP
200
ITEM: NUMBER OF ATOMS
384
ITEM: BOX BOUNDS pp pp pp
-2.1868351273538700e-01 1.5218683512735430e+01
-2.1868351273538700e-01 1.5218683512735430e+01
-2.1868351273538700e-01 1.5218683512735430e+01
ITEM: ATOMS id type x y z
1 1 4.53621 5.58654 13.2089
2 1 14.5022 3.91679 13.9335
3 1 7.60351 10.6745 3.77279
4 1 1.68695 3.76354 4.58289
5 1 13.6491 10.2065 10.2755
6 1 9.96004 0.243905 -0.00645864
7 1 13.3712 9.67639 6.11009
8 1 3.36799 13.5353 7.58938
9 1 3.11159 6.44102 2.89881
10 1 5.47311 7.88499 2.55097
11 1 13.8153 6.52991 1.8423
12 1 0.582574 10.1073 13.7951
13 1 14.9289 5.37276 4.85838
14 1 9.85583 5.96473 7.8887
15 1 12.2365 7.01501 4.02398
16 1 9.92574 2.75716 6.76982
17 1 4.72322 3.96529 11.2674
18 1 7.36031 10.4004 11.3066
19 1 8.33297 1.9356 14.3486
20 1 5.84191 13.884 0.549458
21 1 -0.202155 13.3055 10.0594
22 1 12.5306 1.8273 6.25818
23 1 10.5971 7.08264 14.1335
24 1 1.97968 7.83376 6.31001
25 1 10.4598 9.19493 5.77822
26 1 15.1543 8.17655 4.67155
27 1 1.74772 11.4302 4.40126
28 1 5.92165 0.269531 10.623
29 1 12.2138 8.00066 0.265788
30 1 2.25143 6.54279 12.315
31 1 3.54368 5.7631 5.32598
32 1 7.69245 11.8607 7.87472
33 1 3.16422 3.61144 2.176
34 1 3.07484 13.2293 0.153701
35 1 -0.0664214 5.29377 7.63771
36 1 10.6604 14.6435 7.37935
37 1 1.2716 14.4404 2.30071
38 1 6.08195 0.462077 13.2891
39 1 0.437201 9.9044 2.76642
40 1 12.2205 13.0347 12.5037
41 1 0.943735 12.2671 8.05032
42 1 13.5053 14.231 0.20499
43 1 -0.0719746 14.9895 4.54994
44 1 8.5377 12.762 11.767
45 1 12.45 6.29757 6.8132
46 1 9.7381 10.2149 8.22081
47 1 10.4391 11.0599 12.7955
48 1 8.87216 12.3963 5.3693
49 1 3.89094 1.63347 14.2071
50 1 6.45556 13.2639 13.4225
51 1 4.15001 5.98315 9.30317
52 1 11.2544 -0.0312454 13.0613
53 1 7.517 14.1973 3.51039
54 1 4.66018 2.0704 3.5741
55 1 12.242 11.2666 8.39974
56 1 8.79516 10.5026 -0.205746
57 1 1.62146 1.76741 8.3524
58 1 8.50435 5.61725 11.606
59 1 1.17199 9.16469 8.54289
60 1 10.4028 10.4683 3.37272
61 1 11.4905 4.3473 14.8304
62 1 10.5241 6.93484 10.53
63 1 4.87564 10.2232 10.0609
64 1 8.02055 8.05518 1.34884
65 1 14.2626 7.5608 8.60109
66 1 4.91393 14.7726 3.67707
67 1 5.7841 1.89454 6.83218
68 1 1.33691 0.329688 10.3455
69 1 11.4892 12.3868 1.75449
70 1 8.26382 4.28602 9.33726
71 1 15.2084 12.5378 5.64084
72 1 4.96099 11.3184 7.61408
73 1 0.912785 7.47447 14.2922
74 1 1.14268 4.23993 11.8304
75 1 -0.131215 0.594865 12.7083
76 1 12.4104 12.5165 5.98676
77 1 6.19586 1.09708 1.43878
78 1 5.50542 8.12203 7.02663
79 1 4.56049 3.95222 15.217
80 1 14.5802 1.76768 0.335033
81 1 8.55829 1.32642 2.65911
82 1 10.0776 2.56199 10.298
83 1 1.82328 4.35877 8.88688
84 1 12.6533 15.1137 4.24511
85 1 10.2058 4.76486 4.83145
86 1 8.35714 6.31198 14.9382
87 1 2.79865 2.22361 12.061
88 1 10.0097 14.7174 10.8742
89 1 15.1366 11.3181 0.687547
90 1 9.72601 3.53426 12.7547
91 1 8.01528 3.83398 3.6113
92 1 3.33036 12.6597 2.74373
93 1 13.4671 3.56356 8.1649
94 1 0.693704 7.50997 1.72581
95 1 13.3329 10.0198 12.7895
96 1 6.19131 2.784 9.26021
97 1 5.78293 3.87655 5.18217
98 1 13.011 1.84055 12.6685
99 1 8.95409 7.02479 5.47176
100 1 3.13016 8.20918 10.242
101 1 4.4444 12.2497 12.0187
102 1 0.575268 12.6802 12.4216
103 1 6.77554 8.43622 4.75133
104 1 9.74838 9.48885 10.7993
105 1 7.92068 14.5342 8.99374
106 1 0.794028 14.3396 14.5229
107 1 7.38041 3.96646 0.324466
108 1 13.3182 6.63778 10.8331
109 1 6.681 9.58184 13.6657
110 1 6.75304 6.83208 13.1319
111 1 3.56625 9.83997 5.5849
112 1 1.52949 1.14964 5.69989
113 1 9.10968 13.2176 1.04981
114 1 3.90559 0.126787 6.12346
115 1 10.4492 8.07096 2.28429
116 1 3.76746 14.2655 10.3411
117 1 5.69979 11.6728 2.18973
118 1 3.2281 11.1208 14.1756
119 1 12.2979 2.97189 1.57226
120 1 12.4557 13.6425 10.0725
121 1 13.8309 6.54971 13.604
122 1 11.2288 0.880495 2.47127
123 1 1.7431 1.37594 1.07312
124 1 8.06196 0.611612 6.72153
125 1 12.6729 10.6629 -0.156628
126 1 14.0047 3.76307 10.7597
127 1 12.624 4.10218 4.04471
128 1 4.92565 9.68386 0.419427
129 2 4.89288 4.93031 12.489
130 2 4.38758 5.12046 13.9774
131 2 14.3821 4.80919 13.9898
132 2 -0.178438 3.8633 13.4824
133 2 7.16998 9.6872 4.33556
134 2 8.3363 10.4193 3.32831
135 2 1.00919 4.37356 4.64633
136 2 2.09781 3.81723 3.70875
137 2 14.3631 10.7122 10.0107
138 2 13.4469 10.2717 11.4003
139 2 10.4142 0.683188 0.998876
140 2 9.09552 0.7222 -0.198394
141 2 13.2941 9.51213 7.1622
142 2 13.2655 10.5346 5.84949
143 2 3.52036 13.9558 8.5112
144 2 3.58313 14.1394 6.97074
145 2 3.07835 5.81186 2.24795
146 2 3.34748 5.99801 3.74308
147 2 5.09492 8.56568 1.86823
148 2 4.62755 7.27319 2.64058
149 2 13.4289 6.38427 2.79653
150 2 14.6741 6.94407 2.10414
151 2 0.664733 9.05352 13.7361
152 2 0.513454 10.2546 14.7586
153 2 14.1016 5.0481 4.5287
154 2 14.9417 6.46832 4.64457
155 2 10.6812 6.23462 7.10079
156 2 9.20789 6.47937 7.28616
157 2 12.3183 7.0116 4.8659
158 2 11.4585 7.64248 3.73856
159 2 9.76801 3.11588 7.60351
160 2 10.1261 3.66583 6.31217
161 2 4.12939 3.1983 11.2917
162 2 5.20853 3.83754 10.3412
163 2 8.13806 9.82734 11.2644
164 2 7.59055 11.346 11.2884
165 2 8.25252 2.47558 15.19
166 2 7.49812 1.79291 13.8632
167 2 6.42051 13.7066 15.1242
168 2 4.90995 14.0024 0.367603
169 2 14.2226 13.5764 9.78697
170 2 0.0110317 13.1451 11.022
171 2 11.4576 2.10086 6.42303
172 2 12.7838 0.964134 5.66921
173 2 10.852 7.47438 13.1618
174 2 11.2111 7.31512 14.7847
175 2 1.20235 7.79371 5.65786
176 2 1.62235 8.16977 7.06086
177 2 11.4905 9.00983 5.89546
178 2 10.2335 9.78724 4.95969
179 2 14.5229 8.65438 5.00836
180 2 -0.0347335 8.75575 3.96197
181 2 1.20809 11.8673 5.17679
182 2 2.42524 10.9519 4.84823
183 2 6.17684 1.06601 10.2525
184 2 5.12854 -0.122444 10.2214
185 2 12.7012 8.86003 -0.0351207
186 2 13.0242 7.49139 0.890266
187 2 2.51 6.97213 11.5121
188 2 3.12556 6.21962 12.803
189 2 2.87379 6.28659 5.77771
190 2 3.05837 4.98912 5.3094
191 2 7.47968 12.9485 8.06745
192 2 8.43086 11.9691 6.94097
193 2 2.63127 2.91071 1.76604
194 2 3.7119 2.99308 2.95406
195 2 3.0216 12.4552 15.0237
196 2 2.9874 13.0626 1.29045
197 2 -0.157833 5.41085 6.29198
198 2 14.9769 6.20227 8.05835
199 2 11.4727 15.2007 7.42618
200 2 11.1557 13.8786 7.3042
201 2 2.13757 14.1666 2.61938
202 2 1.38507 -0.132107 1.78699
203 2 6.15868 14.9184 13.2623
204 2 6.07392 0.563719 12.3104
205 2 0.940373 9.09638 2.44372
206 2 0.837239 10.4484 3.32995
207 2 11.7377 14.0242 12.5103
208 2 11.6974 12.2231 12.7238
209 2 1.96497 12.8938 8.01807
210 2 0.407285 12.678 8.67336
211 2 13.4754 15.1206 0.288573
212 2 13.3973 14.3096 14.6164
213 2 14.4954 -0.175443 4.21833
214 2 0.487023 14.7898 3.65727
215 2 8.9534 13.6528 11.4192
216 2 9.21481 12.3045 12.1637
217 2 12.9592 6.8541 7.39615
218 2 13.012 5.47277 6.98336
219 2 8.87173 10.7601 8.15053
220 2 9.71744 9.62154 7.47013
221 2 10.3485 10.3525 12.0435
222 2 9.97801 10.8732 13.5375
223 2 9.80013 12.2309 5.19756
224 2 8.36726 11.4282 5.0495
225 2 4.62301 1.10165 13.9181
226 2 3.35948 1.69842 13.4226
227 2 7.39507 13.0223 13.1062
228 2 5.68943 12.6472 12.8183
229 2 3.38737 5.36691 9.20316
230 2 4.54482 5.36076 9.88767
231 2 10.9147 0.326221 13.9696
232 2 12.0101 0.69866 12.7485
233 2 7.94717 15.0539 3.61326
234 2 8.06138 13.7487 4.32166
235 2 5.20934 1.58575 2.89287
236 2 5.29623 2.65605 3.802
237 2 12.6294 10.8939 9.28657
238 2 11.3537 10.8426 8.35327
239 2 8.42133 9.88742 0.358752
240 2 8.72042 11.2827 0.161629
241 2 1.41339 1.57252 7.43601
242 2 1.83674 2.68188 8.41328
243 2 8.87855 4.94761 12.1744
244 2 7.80306 5.97934 12.1643
245 2 1.79017 8.83641 9.25582
246 2 1.20024 10.1914 8.39226
247 2 10.7338 11.2922 2.99422
248 2 10.37 9.61094 2.85001
249 2 11.0285 5.2485 14.8279
250 2 10.927 3.96955 14.0085
251 2 10.5976 6.3443 9.73674
252 2 9.55462 6.47211 10.928
253 2 5.74254 10.1525 10.2471
254 2 4.76238 10.818 9.16638
255 2 7.95949 7.10988 0.431499
256 2 7.19292 7.85392 1.88774
257 2 13.9816 7.06027 9.43096
258 2 14.9708 8.09965 8.94036
259 2 5.88094 14.4929 3.92608
260 2 4.44537 13.9034 3.39682
261 2 6.60917 1.45405 6.87472
262 2 4.9901 1.25344 6.64994
263 2 1.39767 0.842114 9.53635
264 2 0.636062 15.0621 10.1846
265 2 10.786 13.0163 1.32461
266 2 12.2689 13.0252 1.65304
267 2 8.33609 4.7237 10.1665
268 2 8.74885 4.74976 8.63976
269 2 15.1908 13.5395 5.31122
270 2 0.233511 12.7166 6.50871
271 2 5.94593 11.4875 7.47574
272 2 4.48748 12.1656 7.57954
273 2 0.143658 7.01408 14.3756
274 2 1.17914 7.0939 13.499
275 2 1.47522 5.17567 11.8301
276 2 0.39884 4.35018 11.2392
277 2 0.500553 0.680128 11.8728
278 2 0.321427 0.321741 13.4251
279 2 13.3618 12.4583 5.82235
280 2 12.3838 12.174 6.9304
281 2 6.11833 1.48713 0.692152
282 2 5.99299 0.224266 1.19574
283 2 5.3676 7.21482 7.52796
284 2 5.25925 8.8568 7.34612
285 2 4.33241 3.01617 14.7015
286 2 3.95773 4.02935 0.558078
287 2 13.9428 2.13598 0.850302
288 2 14.6849 2.42101 15.0527
289 2 7.81683 1.2902 1.93524
290 2 8.45406 2.05976 3.26493
291 2 9.646 3.14682 9.68169
292 2 10.2441 1.5299 10.1527
293 2 1.49977 4.22717 9.90097
294 2 1.1451 5.02709 8.52125
295 2 11.9489 0.162475 3.45487
296 2 12.2997 14.2748 4.59933
297 2 10.0271 5.80519 5.03925
298 2 9.41033 4.3495 4.23009
299 2 9.27847 6.82248 14.7217
300 2 7.59197 6.32027 14.1619
301 2 2.10207 2.98106 11.9904
302 2 2.54783 1.62505 11.4072
303 2 10.9644 14.6099 10.3142
304 2 10.5284 15.1749 11.5365
305 2 -0.192906 12.3049 0.764918
306 2 0.0430724 10.7215 1.50775
307 2 9.31703 2.78403 13.3448
308 2 10.1175 3.0287 11.9928
309 2 7.1827 4.04239 4.16636
310 2 7.92153 4.29423 2.64983
311 2 2.78211 12.1159 3.39614
312 2 4.20373 12.164 2.62884
313 2 13.3163 2.68173 7.757
314 2 14.3287 3.93734 7.9832
315 2 0.935166 7.41791 0.748903
316 2 1.46163 7.31144 2.34421
317 2 14.371 9.98215 13.1506
318 2 12.7014 10.3365 13.4992
319 2 6.03543 2.5375 8.3668
320 2 6.99581 3.39945 9.31478
321 2 5.0138 4.41743 5.15849
322 2 5.63233 3.09845 6.00172
323 2 13.0339 2.35085 13.3697
324 2 13.879 1.40716 12.7949
325 2 8.16887 7.39999 4.95164
326 2 9.44368 7.86544 5.6459
327 2 3.68778 7.31113 9.8236
328 2 3.78349 8.89147 10.3149
329 2 4.44074 11.579 11.2536
330 2 3.94332 11.9215 12.8582
331 2 0.406004 11.8756 12.9961
332 2 0.548391 13.3794 13.065
333 2 6.18972 8.433 5.55939
334 2 6.33102 8.12102 4.00236
335 2 9.60115 9.95357 9.89536
336 2 10.1478 8.63605 10.3883
337 2 8.68309 14.8857 9.59805
338 2 6.93464 14.7745 9.56194
339 2 0.147321 14.3966 -0.192128
340 2 1.64219 13.8789 14.7433
341 2 6.3015 4.1608 0.382791
342 2 7.68297 4.9157 -0.072757
343 2 13.5686 5.6456 10.7698
344 2 12.2692 6.70857 10.9953
345 2 6.73777 10.1628 12.7727
346 2 7.493 9.80052 14.0017
347 2 5.87975 6.40335 13.162
348 2 6.64745 7.81288 13.2668
349 2 3.73145 10.3723 6.2969
350 2 2.84664 9.15371 5.83103
351 2 1.01613 0.602225 5.24992
352 2 1.4445 2.0692 5.13902
353 2 8.64713 13.2301 1.91952
354 2 9.34642 14.1232 0.767165
355 2 3.08039 0.533339 5.82378
356 2 4.40511 -0.153096 5.26569
357 2 11.1224 8.06643 1.53976
358 2 9.59174 7.98361 1.86645
359 2 2.883 14.807 10.3627
360 2 3.657 13.4959 10.9988
361 2 5.89372 12.5096 1.85366
362 2 6.34785 11.5356 2.9189
363 2 2.59758 10.4194 13.9235
364 2 3.78246 10.3607 14.6927
365 2 11.8271 3.58826 0.877524
366 2 12.5364 3.36633 2.36774
367 2 12.1734 13.0056 9.34194
368 2 12.195 13.4332 11.0117
369 2 13.6933 6.74856 12.8872
370 2 13.0177 6.79799 14.0536
371 2 11.5936 1.87506 2.09934
372 2 10.3274 1.034 2.775
373 2 0.799404 1.61733 0.792815
374 2 2.19273 1.03452 0.282609
375 2 8.16188 0.0480526 7.472
376 2 8.93213 1.22644 6.54084
377 2 12.2983 11.1535 0.488823
378 2 13.7532 10.8472 0.193822
379 2 13.7908 3.59917 9.67685
380 2 13.5662 3.06833 11.2026
381 2 12.7524 3.36244 4.62972
382 2 11.6758 4.50354 4.26275
383 2 5.38457 10.3657 0.849962
384 2 5.45565 9.39682 15.0743
ITEM: TIMESTEP
400
ITEM: NUMBER OF ATOMS
384
ITEM: BOX BOUNDS pp pp pp
-1.3021218416963443e-01 1.5130212184169675e+01
-1.3021218416963443e-01 1.5130212184169675e+01
-1.3021218416963443e-01 1.5130212184169675e+01
ITEM: ATOMS id type x y z
1 1 4.54272 5.46486 12.5316
2 1 14.632 3.84927 14.0762
3 1 7.30176 10.7756 3.45434
4 1 1.64642 3.5222 4.43262
5 1 13.5338 9.62384 9.91576
6 1 9.47068 0.0263782 15.0215
7 1 13.3326 9.77003 6.40625
8 1 3.51453 12.9867 7.87351
9 1 3.40686 6.08885 2.46397
10 1 5.51511 7.49691 2.14881
11 1 13.8443 6.66884 1.99275
12 1 0.620593 10.1381 13.999
13 1 15.1022 5.22389 4.84557
14 1 9.60443 6.49241 8.09967
15 1 12.2605 6.81234 4.49427
16 1 10.2603 2.64583 6.74841
17 1 4.59691 3.78629 10.594
18 1 6.84136 10.4571 11.1845
19 1 7.92732 2.09187 14.3794
20 1 5.78512 13.5481 0.464855
21 1 -0.125929 13.3455 10.0212
22 1 12.2525 1.9939 5.66194
23 1 10.76 6.48384 13.458
24 1 2.06344 8.01693 6.44143
25 1 10.7285 9.02392 5.68125
26 1 15.0193 7.92078 4.75978
27 1 1.62825 11.2571 4.50051
28 1 5.95819 0.580625 10.3757
29 1 12.2912 7.86382 0.120928
30 1 2.14054 6.47191 12.0771
31 1 3.27528 5.66862 5.27749
32 1 7.47899 11.9917 7.78382
33 1 3.2389 3.41328 1.84912
34 1 3.28354 12.942 -0.0159825
35 1 -0.0144589 4.94861 7.51179
36 1 10.5584 14.6696 7.26968
37 1 0.967719 14.2613 1.80343
38 1 5.91632 0.93101 13.0723
39 1 0.354174 9.70683 2.84258
40 1 12.2592 12.9776 12.3889
41 1 1.09644 11.9311 8.09709
42 1 13.4936 13.9144 15.1052
43 1 15.0188 14.8598 4.08215
44 1 8.39119 12.8102 11.9023
45 1 11.9882 5.94913 7.13532
46 1 9.66403 10.3426 7.95791
47 1 10.1083 10.986 12.8253
48 1 8.61368 12.3151 5.36252
49 1 3.70178 1.70975 13.9721
50 1 6.18147 13.4589 13.2032
51 1 4.0963 6.15576 8.70211
52 1 11.1976 0.106472 12.8785
53 1 7.36558 13.9579 3.51743
54 1 4.60609 2.15237 3.72893
55 1 12.1269 11.2501 8.4968
56 1 8.86766 10.2321 -0.0164548
57 1 2.06425 1.44416 8.24771
58 1 8.48725 5.25736 11.6902
59 1 0.678029 9.48723 8.81527
60 1 10.0995 10.5973 3.69664
61 1 11.5886 3.91629 14.3744
62 1 10.0595 7.05215 10.4617
63 1 4.62791 10.1136 9.7139
64 1 8.22387 8.10328 1.47724
65 1 14.0267 7.26387 8.12686
66 1 4.89618 14.7331 3.7174
67 1 5.78056 1.74787 6.49469
68 1 1.46531 0.11944 10.2761
69 1 11.2299 12.5822 1.84868
70 1 8.82338 3.94891 9.22024
71 1 15.0742 12.5991 5.74586
72 1 5.03398 11.0813 7.25075
73 1 0.780219 7.56684 14.1976
74 1 0.549571 4.15896 11.5875
75 1 -0.102075 0.71968 12.6114
76 1 12.3686 12.6999 5.9173
77 1 6.31877 1.00706 1.07752
78 1 5.58499 8.06268 7.501
79 1 4.70723 4.02941 14.9785
80 1 14.4986 1.69131 0.627566
81 1 8.15575 1.26473 3.04567
82 1 10.2819 2.07313 10.5344
83 1 2.04561 4.19284 8.82218
84 1 12.3351 14.9825 4.32233
85 1 9.79157 4.59013 4.95889
86 1 8.33617 6.19492 14.8507
87 1 2.61323 2.22784 11.5353
88 1 10.1226 14.5097 10.6752
89 1 14.8087 11.4126 0.980878
90 1 9.67289 3.19141 12.7453
91 1 7.62569 3.74768 3.40249
92 1 3.14331 12.7389 2.77972
93 1 13.1244 3.71377 7.92176
94 1 1.25221 7.67021 1.62281
95 1 13.2384 9.80837 12.6333
96 1 6.45526 2.80817 8.91508
97 1 6.0328 4.42148 5.585
98 1 12.8006 2.10385 12.4747
99 1 8.74922 7.2112 5.73675
100 1 2.84437 8.17253 9.95113
101 1 4.28103 12.1081 11.7887
102 1 1.05266 12.2224 12.1352
103 1 6.46782 8.38653 4.64934
104 1 9.2169 9.53449 10.6135
105 1 7.65432 14.4016 8.63692
106 1 1.03907 14.0708 14.1527
107 1 7.0152 4.00537 1.03939
108 1 12.5535 6.54138 11.0294
109 1 6.98165 9.43224 13.6196
110 1 6.74128 6.92738 12.7517
111 1 3.85409 9.68479 5.04769
112 1 1.36462 1.06354 5.63834
113 1 8.74743 13.0152 1.22951
114 1 3.6411 15.0191 6.35223
115 1 10.7827 8.24999 2.53201
116 1 3.88068 14.1816 10.1874
117 1 5.26365 11.3771 1.75694
118 1 3.20614 10.8494 13.9662
119 1 12.1879 2.95776 1.72905
120 1 12.3736 13.4634 9.83903
121 1 13.7759 6.65502 13.3982
122 1 10.7504 0.649615 2.40902
123 1 1.82083 1.50405 0.87442
124 1 8.19445 0.745219 5.96347
125 1 12.3194 10.4492 0.177972
126 1 13.341 4.03931 10.6458
127 1 12.9349 4.0543 4.36661
128 1 4.73104 9.41315 0.128622
129 2 4.53726 4.64236 11.9629
130 2 4.51586 5.1331 13.428
131 2 14.1558 4.6576 14.3748
132 2 -0.0267774 4.36295 13.4408
133 2 7.25099 9.97249 3.92555
134 2 8.14026 10.7248 2.94606
135 2 1.10273 4.2771 4.39966
136 2 2.10861 3.4006 3.6122
137 2 14.5367 9.63554 9.70699
138 2 13.2822 9.45062 10.8891
139 2 10.129 0.206761 0.561027
140 2 8.92924 0.730352 14.758
141 2 13.3969 10.1169 7.41085
142 2 13.4611 10.6296 5.8763
143 2 3.58032 13.6793 8.5726
144 2 3.51902 13.4751 7.08614
145 2 3.25099 5.23503 2.17725
146 2 3.32584 5.99662 3.29681
147 2 5.26153 8.17275 1.66321
148 2 4.6735 6.90905 2.37719
149 2 13.5039 6.8003 2.90841
150 2 14.7727 6.88382 2.15297
151 2 0.974245 8.95175 14.048
152 2 0.0812744 10.3988 14.7151
153 2 14.2956 4.64607 4.789
154 2 15.0689 6.11738 4.61902
155 2 10.4009 6.04569 7.54232
156 2 8.9342 6.79011 7.33829
157 2 11.9959 6.64012 5.49886
158 2 11.655 7.39228 4.09563
159 2 9.81542 2.82073 7.56241
160 2 10.0233 3.55422 6.28306
161 2 3.93316 3.00142 10.8359
162 2 5.34483 3.50759 10.1037
163 2 7.4679 9.87661 10.8338
164 2 7.35275 11.303 11.3454
165 2 7.64113 2.71314 15.0257
166 2 7.15977 1.73808 14.0283
167 2 6.15173 13.3708 14.9104
168 2 4.74765 13.5232 0.322003
169 2 14.2278 13.5198 10.1061
170 2 0.190039 12.9345 11.0384
171 2 11.5263 2.06177 6.27655
172 2 12.3929 1.12914 5.28187
173 2 11.1537 6.15684 12.6553
174 2 11.21 6.90417 14.2129
175 2 1.2811 7.80476 5.8978
176 2 1.63852 8.10868 7.33793
177 2 11.6286 9.0597 6.07393
178 2 10.6004 9.49731 4.73888
179 2 14.1973 8.08809 5.19417
180 2 15.1247 8.57201 3.90106
181 2 0.998286 11.6565 5.08842
182 2 2.3049 10.6596 4.78666
183 2 5.99731 1.34991 9.6695
184 2 5.11017 -0.111525 10.1282
185 2 12.3424 8.99265 0.0853226
186 2 12.78 7.41341 0.971399
187 2 2.40279 7.24109 11.4735
188 2 2.83269 5.83072 12.1788
189 2 2.82674 6.2656 5.78349
190 2 2.81437 4.92976 5.09933
191 2 7.31633 12.7355 8.46505
192 2 7.66701 12.3738 6.91655
193 2 2.5071 2.83256 1.40388
194 2 3.85864 2.6896 2.08372
195 2 3.28011 12.1741 14.5893
196 2 3.08853 12.7178 0.885329
197 2 0.0992308 5.24374 6.59047
198 2 -0.00265573 5.78968 7.76835
199 2 11.0647 14.8963 8.08997
200 2 11.2476 14.0988 6.78056
201 2 1.85062 13.7701 1.95186
202 2 1.35318 14.9416 1.22803
203 2 5.87404 -0.0253261 13.259
204 2 5.78532 0.724132 11.9575
205 2 1.14832 9.10526 2.41765
206 2 0.996824 10.5309 3.33251
207 2 11.6948 13.6194 12.8278
208 2 11.7523 12.3615 12.7071
209 2 1.88859 12.3876 8.05812
210 2 0.501873 12.4759 8.9138
211 2 13.7137 14.7648 14.9144
212 2 13.1661 13.4057 14.4912
213 2 13.9665 15.0739 4.01274
214 2 0.0218182 14.733 3.21725
215 2 8.83055 13.2637 11.2546
216 2 9.00987 12.0787 12.235
217 2 12.2957 6.51776 7.84386
218 2 12.37 4.987 7.21817