ITEM: TIMESTEP
0
ITEM: NUMBER OF ATOMS
384
ITEM: BOX BOUNDS pp pp pp
0.0000000000000000e+00 1.5645677530000000e+01
0.0000000000000000e+00 1.4707145290000000e+01
0.0000000000000000e+00 1.8073037029999998e+01
ITEM: ATOMS id type x y z
1 1 1.38 1.76 3.37
2 1 5.2 4.47 1.11
3 1 6.59 5.39 3.31
4 1 5.28 4.49 5.56
5 1 2.59 0.84 5.67
6 1 2.69 5.43 5.56
7 1 5.2 1.71 1.07
8 1 5.2 1.73 5.58
9 1 1.32 4.61 7.82
10 1 1.3 4.52 3.36
11 1 2.61 5.41 1.1
12 1 2.59 0.82 1.07
13 1 6.54 0.87 3.33
14 1 6.54 0.88 7.83
15 1 6.51 5.4 7.86
16 1 1.35 1.85 7.92
17 1 9.2 1.76 3.37
18 1 13.05 4.55 1.15
19 1 14.35 5.46 3.4
20 1 13.1 4.49 5.66
21 1 10.41 0.84 5.67
22 1 10.51 5.43 5.65
23 1 13.07 1.79 1.07
24 1 13.02 1.73 5.58
25 1 9.15 4.61 7.91
26 1 9.2 4.52 3.4
27 1 10.45 5.49 1.15
28 1 10.49 0.82 1.12
29 1 14.36 0.87 3.33
30 1 14.36 0.88 7.83
31 1 14.36 5.48 7.9
32 1 9.17 1.85 7.92
33 1 1.3 9.11 3.32
34 1 5.3 11.9 1.11
35 1 6.53 12.81 3.4
36 1 5.2 11.84 5.61
37 1 2.59 8.19 5.58
38 1 2.61 12.79 5.61
39 1 5.25 9.14 1.16
40 1 5.2 9.08 5.67
41 1 1.32 11.96 7.91
42 1 1.38 11.87 3.31
43 1 2.69 12.77 1.06
44 1 2.67 8.17 1.12
45 1 6.49 8.14 3.42
46 1 6.49 8.16 7.92
47 1 6.53 12.83 7.81
48 1 1.35 9.21 7.83
49 1 9.09 9.19 3.37
50 1 13.13 11.9 1.11
51 1 14.44 12.82 3.35
52 1 13.1 11.84 5.56
53 1 10.41 8.19 5.58
54 1 10.51 12.79 5.65
55 1 12.99 9.14 1.12
56 1 13.02 9.08 5.67
57 1 9.12 11.89 7.86
58 1 9.15 11.95 3.4
59 1 10.51 12.77 1.15
60 1 10.38 8.25 1.12
61 1 14.29 8.22 3.37
62 1 14.36 8.24 7.92
63 1 14.36 12.83 7.81
64 1 9.12 9.13 7.83
65 1 1.35 1.83 12.45
66 1 5.2 4.47 10.14
67 1 6.59 5.39 12.34
68 1 5.3 4.56 14.65
69 1 2.67 0.84 14.66
70 1 2.69 5.43 14.6
71 1 5.28 1.71 10.15
72 1 5.25 1.81 14.61
73 1 1.32 4.61 16.85
74 1 1.32 4.59 12.35
75 1 2.63 5.49 10.09
76 1 2.64 0.89 10.2
77 1 6.57 0.79 12.41
78 1 6.54 0.88 16.87
79 1 6.53 5.48 16.94
80 1 1.35 1.85 16.86
81 1 9.2 1.76 12.41
82 1 13.02 4.47 10.14
83 1 14.35 5.46 12.34
84 1 13.05 4.57 14.6
85 1 10.46 0.91 14.71
86 1 10.46 5.51 14.69
87 1 13.1 1.71 10.15
88 1 13.07 1.81 14.61
89 1 9.15 4.61 16.94
90 1 9.2 4.52 12.44
91 1 10.45 5.49 10.18
92 1 10.49 0.82 10.16
93 1 14.39 0.79 12.41
94 1 14.36 0.88 16.87
95 1 14.33 5.4 16.89
96 1 9.17 1.85 16.96
97 1 1.3 9.11 12.45
98 1 5.28 11.83 10.1
99 1 6.59 12.74 12.34
100 1 5.3 11.92 14.65
101 1 2.59 8.19 14.71
102 1 2.69 12.79 14.6
103 1 5.2 9.07 10.2
104 1 5.17 9.16 14.66
105 1 1.38 11.89 16.85
106 1 1.38 11.87 12.35
107 1 2.71 12.84 10.14
108 1 2.56 8.25 10.16
109 1 6.49 8.14 12.46
110 1 6.46 8.24 16.91
111 1 6.61 12.83 16.89
112 1 1.3 9.13 16.96
113 1 9.09 9.19 12.41
114 1 13.13 11.9 10.14
115 1 14.41 12.74 12.44
116 1 13.1 11.84 14.69
117 1 10.38 8.27 14.66
118 1 10.53 12.86 14.64
119 1 12.99 9.14 10.15
120 1 13.02 9.08 14.7
121 1 9.23 11.96 16.9
122 1 9.23 11.95 12.39
123 1 10.51 12.77 10.09
124 1 10.38 8.25 10.16
125 1 14.29 8.22 12.41
126 1 14.31 8.16 16.96
127 1 14.44 12.83 16.89
128 1 9.09 9.21 16.91
129 2 0.46 1.48 3.37
130 2 1.33 2.71 3.37
131 2 5.68 4.81 1.86
132 2 5.67 4.81 0.35
133 2 6.13 5.1 4.1
134 2 6.56 6.34 3.34
135 2 4.38 4.84 5.6
136 2 5.7 4.83 6.36
137 2 2.17 1.18 4.88
138 2 3.49 1.17 5.63
139 2 2.23 5.15 6.35
140 2 2.65 6.39 5.59
141 2 5.65 1.43 1.86
142 2 5.23 2.67 1.1
143 2 5.23 2.69 5.61
144 2 5.65 1.45 6.37
145 2 1.78 4.88 8.61
146 2 1.33 3.65 7.85
147 2 1.78 4.85 4.11
148 2 1.78 4.85 2.6
149 2 3.52 5.14 1.1
150 2 2.64 6.37 1.11
151 2 3.49 1.15 1.11
152 2 2.17 1.16 1.87
153 2 6.09 1.14 4.12
154 2 6.53 14.6171 3.37
155 2 6.09 1.15 8.63
156 2 6.53 14.6371 7.86
157 2 7.43 5.14 7.86
158 2 6.53 6.36 7.86
159 2 1.77 1.51 7.13
160 2 0.46 1.51 7.89
161 2 9.16 2.71 3.37
162 2 8.28 1.48 3.37
163 2 13.06 3.59 1.12
164 2 13.5 4.82 0.36
165 2 13.94 5.12 2.61
166 2 15.25 5.14 3.36
167 2 13.52 4.82 4.86
168 2 12.21 4.84 5.62
169 2 11.31 1.17 5.63
170 2 10 1.18 4.88
171 2 10.47 6.39 5.62
172 2 10.05 5.15 4.86
173 2 12.18 1.46 1.11
174 2 13.49 1.45 1.86
175 2 13.05 2.69 5.61
176 2 13.48 1.45 6.37
177 2 9.61 4.88 7.11
178 2 9.16 3.65 7.88
179 2 8.3 4.84 3.36
180 2 9.61 4.85 2.61
181 2 10.04 5.17 0.35
182 2 11.35 5.14 1.11
183 2 10.02 1.16 0.36
184 2 10.02 1.16 1.88
185 2 13.91 1.14 4.12
186 2 14.35 14.6171 3.37
187 2 13.91 1.15 8.63
188 2 14.36 14.6371 7.86
189 2 13.94 5.14 7.11
190 2 15.26 5.16 7.86
191 2 8.28 1.51 7.89
192 2 9.59 1.51 7.13
193 2 1.75 8.83 4.12
194 2 1.33 10.07 3.36
195 2 4.39 12.19 1.1
196 2 5.25 10.94 1.11
197 2 7.43 12.49 3.36
198 2 6.12 12.48 2.61
199 2 5.68 12.17 4.85
200 2 5.68 12.18 6.37
201 2 2.17 8.54 6.37
202 2 3.49 8.52 5.61
203 2 2.64 13.74 5.61
204 2 3.52 12.51 5.61
205 2 4.35 8.81 1.13
206 2 5.66 8.81 0.36
207 2 5.23 10.04 5.63
208 2 5.65 8.8 4.88
209 2 1.78 12.24 7.11
210 2 1.34 11.01 7.88
211 2 0.48 12.2 3.35
212 2 1.79 12.21 4.11
213 2 2.23 12.49 1.85
214 2 2.65 13.72 1.09
215 2 2.19 8.52 1.88
216 2 2.2 8.52 0.36
217 2 7.38 8.49 3.39
218 2 6.07 8.48 2.63
219 2 6.07 8.5 7.13
220 2 7.38 8.51 7.89
221 2 6.12 12.49 8.61
222 2 7.43 12.51 7.85
223 2 0.46 8.86 7.86
224 2 1.77 8.86 8.62
225 2 9.57 8.85 4.13
226 2 9.57 8.84 2.61
227 2 12.21 12.19 1.1
228 2 13.08 10.94 1.11
229 2 13.95 12.48 2.6
230 2 13.95 12.48 4.11
231 2 13.52 12.18 6.36
232 2 12.21 12.19 5.6
233 2 11.31 8.52 5.61
234 2 10 8.54 6.37
235 2 10.47 13.74 5.62
236 2 10.05 12.51 4.86
237 2 13.47 8.8 1.87
238 2 13.47 8.81 0.36
239 2 13.48 8.8 4.88
240 2 13.05 10.04 5.63
241 2 9.6 12.22 8.62
242 2 9.6 12.22 7.11
243 2 9.16 10.99 3.37
244 2 9.61 12.22 2.61
245 2 10.48 13.72 1.13
246 2 10.05 12.49 0.35
247 2 11.3 8.53 1.12
248 2 10.43 7.29 1.11
249 2 15.2 8.51 3.37
250 2 14.34 7.26 3.37
251 2 14.36 7.28 7.88
252 2 13.91 8.52 7.13
253 2 15.26 12.51 7.85
254 2 13.94 12.49 8.61
255 2 9.15 10.09 7.86
256 2 9.57 8.85 8.62
257 2 1.77 1.49 11.66
258 2 0.46 1.49 12.42
259 2 5.68 4.81 10.9
260 2 5.67 4.81 9.38
261 2 6.56 6.34 12.38
262 2 6.13 5.1 13.14
263 2 4.39 4.85 14.65
264 2 5.25 3.61 14.65
265 2 2.19 1.18 13.9
266 2 2.19 1.18 15.42
267 2 2.23 5.15 15.39
268 2 2.65 6.39 14.63
269 2 4.36 1.44 10.15
270 2 5.24 2.67 10.15
271 2 4.35 1.48 14.65
272 2 5.66 1.47 15.41
273 2 1.78 4.88 17.65
274 2 1.33 3.65 16.89
275 2 1.78 4.87 13.14
276 2 1.34 3.64 12.39
277 2 2.21 5.16 10.89
278 2 3.52 5.14 10.13
279 2 2.19 1.18 9.41
280 2 2.63 14.6471 10.16
281 2 6.09 1.13 11.65
282 2 6.09 1.14 13.17
283 2 6.53 14.6371 16.9
284 2 6.09 1.15 17.67
285 2 7.43 5.16 16.9
286 2 6.12 5.14 16.15
287 2 0.46 1.51 16.89
288 2 1.77 1.51 17.66
289 2 8.28 1.48 12.41
290 2 9.16 2.71 12.4
291 2 13.5 4.81 9.38
292 2 13.5 4.81 10.9
293 2 15.25 5.14 12.39
294 2 13.94 5.13 13.14
295 2 13.51 4.84 15.39
296 2 13.06 3.61 14.64
297 2 10.46 14.6671 14.67
298 2 10.01 1.19 13.91
299 2 11.35 5.16 14.65
300 2 10.04 5.17 13.9
301 2 13.07 2.67 10.15
302 2 12.18 1.44 10.15
303 2 13.49 1.47 15.41
304 2 12.18 1.48 14.65
305 2 9.16 3.65 16.91
306 2 9.61 4.88 16.15
307 2 9.61 4.85 11.64
308 2 8.3 4.84 12.4
309 2 10.04 5.17 9.39
310 2 11.35 5.14 10.15
311 2 10.02 1.16 10.91
312 2 10.02 1.16 9.4
313 2 13.92 1.13 11.65
314 2 13.92 1.14 13.17
315 2 13.91 1.15 17.67
316 2 14.36 14.6371 16.9
317 2 14.36 6.36 16.9
318 2 15.25 5.14 16.9
319 2 8.28 1.51 16.93
320 2 9.59 1.51 16.17
321 2 1.75 8.83 11.66
322 2 1.33 10.07 12.41
323 2 5.7 12.16 10.89
324 2 4.38 12.17 10.13
325 2 6.13 12.46 13.14
326 2 6.56 13.7 12.38
327 2 4.39 12.21 14.65
328 2 5.25 10.96 14.65
329 2 3.49 8.52 14.67
330 2 2.17 8.53 13.91
331 2 2.65 13.74 14.63
332 2 2.23 12.5 15.39
333 2 5.22 10.02 10.17
334 2 5.65 8.79 9.4
335 2 5.65 8.81 13.9
336 2 5.65 8.82 15.42
337 2 0.48 12.22 16.89
338 2 1.79 12.22 17.65
339 2 0.48 12.2 12.39
340 2 1.79 12.21 13.14
341 2 2.23 12.52 9.38
342 2 2.23 12.51 10.89
343 2 2.61 7.29 10.15
344 2 3.48 8.53 10.16
345 2 7.38 8.49 12.42
346 2 6.07 8.48 11.66
347 2 6.52 7.28 16.91
348 2 7.37 8.53 16.91
349 2 6.14 12.5 17.65
350 2 6.13 12.5 16.14
351 2 1.75 8.84 16.16
352 2 1.33 10.09 16.92
353 2 9.57 8.85 13.16
354 2 9.57 8.84 11.65
355 2 13.08 10.94 10.15
356 2 12.21 12.19 10.14
357 2 14.37 13.7 12.41
358 2 13.95 12.46 11.65
359 2 12.21 12.19 14.66
360 2 13.52 12.17 13.9
361 2 11.3 8.55 14.66
362 2 10.43 7.31 14.66
363 2 10.05 12.53 15.4
364 2 10.05 12.52 13.89
365 2 13.47 8.81 9.39
366 2 13.47 8.8 10.91
367 2 13.48 8.8 13.91
368 2 13.05 10.04 14.67
369 2 9.19 11.01 16.9
370 2 8.31 12.24 16.9
371 2 8.31 12.22 12.39
372 2 9.19 10.99 12.4
373 2 10.48 13.72 10.13
374 2 10.05 12.49 10.88
375 2 10.43 7.29 10.15
376 2 11.3 8.53 10.16
377 2 15.2 8.51 12.41
378 2 14.34 7.26 12.4
379 2 15.2 8.51 16.93
380 2 13.89 8.5 16.17
381 2 13.96 12.5 17.65
382 2 13.95 12.5 16.14
383 2 9.57 8.86 16.15
384 2 9.56 8.86 17.67
ITEM: TIMESTEP
200
ITEM: NUMBER OF ATOMS
384
ITEM: BOX BOUNDS pp pp pp
2.4136573719089505e-01 1.5404311792809107e+01
2.3499875751976607e-01 1.4472146532480238e+01
3.2049711169290340e-01 1.7752539918307097e+01
ITEM: ATOMS id type x y z
1 1 1.30567 1.70148 3.31548
2 1 5.0488 4.45125 1.0533
3 1 6.34455 5.2793 3.28274
4 1 5.01562 4.32391 5.40574
5 1 2.53797 0.702795 5.42255
6 1 2.45608 5.29292 5.50549
7 1 5.02401 1.75422 1.08495
8 1 5.11402 1.60462 5.45701
9 1 1.31253 4.3733 7.61479
10 1 1.2652 4.34336 3.24696
11 1 2.53097 5.23485 1.16995
12 1 2.5225 0.844975 1.09921
13 1 6.20569 0.850501 3.25214
14 1 6.28484 0.673576 7.63092
15 1 6.27345 5.23813 7.58319
16 1 1.36894 1.70865 7.53684
17 1 8.84004 1.81194 3.28919
18 1 12.6286 4.38582 1.03544
19 1 13.9244 5.22847 3.20784
20 1 12.695 4.40953 5.46283
21 1 10.1332 0.886554 5.34886
22 1 10.1866 5.27527 5.46848
23 1 12.7736 1.70248 1.00483
24 1 12.7505 1.72145 5.30111
25 1 8.86124 4.25783 7.65631
26 1 8.85744 4.46793 3.2288
27 1 10.1173 5.35114 1.01266
28 1 10.126 0.932901 1.07603
29 1 13.9176 0.757983 3.11497
30 1 13.9511 0.832799 7.6034
31 1 14.0203 5.24044 7.65771
32 1 8.85202 1.71555 7.52727
33 1 1.29013 8.77151 3.26213
34 1 5.05676 11.4616 1.16257
35 1 6.33669 12.3787 3.26612
36 1 4.99922 11.4955 5.40733
37 1 2.51506 7.99547 5.41595
38 1 2.50827 12.3191 5.36271
39 1 5.03975 8.79804 1.07519
40 1 5.10929 8.88463 5.39055
41 1 1.29688 11.5165 7.5393
42 1 1.32185 11.3903 3.17698
43 1 2.60294 12.4048 0.979568
44 1 2.55799 7.90535 1.03327
45 1 6.30183 7.98385 3.33199
46 1 6.26772 7.94248 7.57659
47 1 6.29123 12.3482 7.54639
48 1 1.27938 8.90881 7.70052
49 1 8.84471 8.81417 3.26459
50 1 12.7258 11.4612 1.02446
51 1 13.9573 12.2823 3.19568
52 1 12.6952 11.6287 5.39384
53 1 10.1132 7.90155 5.36483
54 1 10.1283 12.3914 5.40335
55 1 12.6547 8.7518 1.10807
56 1 12.5813 8.83533 5.32889
57 1 8.80191 11.4327 7.47181
58 1 8.82208 11.4877 3.17821
59 1 10.1778 12.461 1.11739
60 1 10.0455 7.99767 1.15288
61 1 13.9758 7.99386 3.26614
62 1 13.8586 7.94487 7.59565
63 1 13.989 12.4743 7.61932
64 1 8.82948 8.81878 7.58565
65 1 1.26211 1.7255 12.0035
66 1 5.1297 4.37988 9.78846
67 1 6.31473 5.36865 11.9418
68 1 5.03551 4.3457 14.0825
69 1 2.59029 0.8601 14.2515
70 1 2.62978 5.2177 14.102
71 1 5.14167 1.73349 9.82843
72 1 5.13074 1.57483 14.2114
73 1 1.26776 4.42532 16.3031
74 1 1.44522 4.45778 12.0135
75 1 2.61856 5.20147 9.69366
76 1 2.60106 0.88965 9.79072
77 1 6.34943 0.868862 12.0205
78 1 6.42559 0.789774 16.3609
79 1 6.38194 5.37007 16.2531
80 1 1.30371 1.73744 16.3307
81 1 8.83211 1.69171 11.9965
82 1 12.7236 4.35623 9.79076
83 1 13.9832 5.32035 11.9307
84 1 12.701 4.42451 14.0967
85 1 10.1092 0.867076 14.2291
86 1 10.0892 5.18393 14.0847
87 1 12.6559 1.76534 9.76604
88 1 12.739 1.73566 14.2114
89 1 8.77473 4.39393 16.3192
90 1 8.84395 4.37529 11.8277
91 1 10.1977 5.23184 9.65111
92 1 10.1333 0.935225 9.78457
93 1 13.9196 0.848429 11.8973
94 1 13.9778 0.805618 16.3054
95 1 13.8634 5.28602 16.2627
96 1 8.88899 1.81822 16.3272
97 1 1.17996 8.77934 11.9623
98 1 5.12338 11.574 9.77175
99 1 6.36352 12.3754 11.9772
100 1 5.07999 11.5203 14.1859
101 1 2.54212 8.00779 14.2133
102 1 2.56376 12.4133 14.0665
103 1 5.09923 8.89108 9.74463
104 1 5.04642 8.80499 14.1602
105 1 1.37281 11.4999 16.2039
106 1 1.30275 11.5424 12.0061
107 1 2.56468 12.4515 9.86396
108 1 2.56988 7.91043 9.76166
109 1 6.14311 7.98032 12.0001
110 1 6.2866 8.00598 16.3667
111 1 6.36001 12.3475 16.336
112 1 1.23969 8.81777 16.3685
113 1 8.82891 8.68953 11.9219
114 1 12.6256 11.5666 9.819
115 1 13.9755 12.3573 11.9699
116 1 12.7362 11.5291 14.146
117 1 9.97128 7.90729 14.2443
118 1 10.2886 12.3982 14.1518
119 1 12.6402 8.91822 9.78553
120 1 12.6389 8.86765 14.1644
121 1 8.90043 11.5861 16.2709
122 1 8.9253 11.4478 11.9088
123 1 10.0898 12.4226 9.76576
124 1 10.1272 7.92054 9.80003
125 1 13.7198 7.97828 11.9636
126 1 13.9301 7.9462 16.3923
127 1 14.0381 12.3849 16.2666
128 1 8.7746 8.90289 16.3505
129 2 0.426621 1.28618 3.25432
130 2 1.14804 2.6717 3.27746
131 2 5.42557 4.72058 1.83379
132 2 5.57252 5.05705 0.36349
133 2 5.77539 4.9811 4.06376
134 2 6.08979 6.20405 3.35679
135 2 4.04925 4.64927 5.46929
136 2 5.39376 4.74515 6.11398
137 2 1.99273 1.1954 4.66488
138 2 3.44684 1.12171 5.43642
139 2 1.98531 5.04137 6.42073
140 2 2.29618 6.22624 5.47635
141 2 5.40147 1.48144 1.97813
142 2 4.93199 2.68822 1.25128
143 2 5.16525 2.65521 5.43214
144 2 5.45519 1.28681 6.37
145 2 1.87181 4.59434 8.42831
146 2 1.23258 3.31688 7.57759
147 2 1.56391 4.78261 3.92036
148 2 1.6889 4.76274 2.5419
149 2 3.46001 5.00982 1.13402
150 2 2.36671 6.27079 1.11276
151 2 3.25961 1.33063 0.991066
152 2 1.88827 1.18158 1.89009
153 2 5.84251 1.14268 4.25593
154 2 6.18669 14.1506 3.34423
155 2 5.83423 0.975061 8.4499
156 2 6.20439 13.917 7.8068
157 2 7.18269 4.97143 7.47663
158 2 6.31153 6.19424 7.47668
159 2 1.71668 1.23434 6.58838
160 2 0.420488 1.25822 7.65605
161 2 8.81494 2.79469 3.08071
162 2 8.06645 1.38912 3.17807
163 2 12.6332 3.42921 1.03127
164 2 13.0512 4.52532 0.383176
165 2 13.7836 4.84824 2.28527
166 2 14.7128 4.88778 3.30367
167 2 13.2021 4.76679 4.63633
168 2 11.7265 4.60346 5.56058
169 2 11.0539 1.08498 5.22702
170 2 9.55616 1.18941 4.60808
171 2 9.92477 6.31434 5.56902
172 2 9.60622 4.88807 4.88514
173 2 11.7638 1.3839 1.27943
174 2 13.2343 1.32637 1.89844
175 2 12.8126 2.70476 5.25877
176 2 13.1263 1.4514 6.17271
177 2 9.26148 4.56941 6.8286
178 2 8.81872 3.31388 7.82868
179 2 7.97284 4.97025 3.11954
180 2 9.43297 4.66789 2.49803
181 2 9.71947 5.11377 17.4407
182 2 10.9255 4.89782 1.00085
183 2 9.72878 1.15039 17.6889
184 2 9.8179 1.44121 1.91533
185 2 13.6708 1.13345 4.08527
186 2 13.7982 13.8021 3.28653
187 2 13.4485 1.11024 8.52042
188 2 13.8839 14.0122 7.7531
189 2 13.6505 4.73175 6.91933
190 2 14.8974 5.18676 7.6485
191 2 8.01332 1.28922 7.56494
192 2 9.4401 1.32901 6.76951
193 2 1.77195 8.58107 4.00828
194 2 1.40631 9.75128 3.03323
195 2 4.14954 11.8472 1.23079
196 2 4.98147 10.5028 1.15151
197 2 7.13895 11.977 3.02164
198 2 5.89821 12.0033 2.38456
199 2 5.57244 11.8679 4.55231
200 2 5.57999 11.9189 6.03233
201 2 2.01838 8.33831 6.34582
202 2 3.53651 8.38287 5.18603
203 2 2.53608 13.3127 5.47637
204 2 3.57285 12.1174 5.35331
205 2 3.90279 8.58305 0.966957
206 2 5.60776 8.14066 0.363884
207 2 5.0399 9.8755 5.40785
208 2 5.73951 8.36116 4.58415
209 2 1.75009 11.8811 6.59757
210 2 1.26306 10.5814 7.59005
211 2 0.255121 11.6827 3.0713
212 2 1.76277 11.6027 3.9468
213 2 2.17601 12.056 1.88162
214 2 2.65402 13.367 1.05173
215 2 2.21456 8.15633 2.01067
216 2 2.10154 8.33642 17.6678
217 2 7.26321 8.30161 3.45105
218 2 5.91453 8.54434 2.60987
219 2 5.8196 8.17629 6.57582
220 2 7.14956 8.43197 7.55285
221 2 5.89187 11.9651 8.40345
222 2 7.12599 11.95 7.53039
223 2 0.314836 8.26711 7.63835
224 2 1.73588 8.34037 8.46062
225 2 9.38106 8.5417 4.09443
226 2 9.23497 8.55618 2.31916
227 2 11.8875 11.92 1.09205
228 2 12.5168 10.4895 1.03001
229 2 13.5827 11.7728 2.35066
230 2 13.5069 11.9403 4.05994
231 2 13.4001 11.9688 6.22299
232 2 11.7047 11.9927 5.46011
233 2 11.1312 8.07524 5.37608
234 2 9.68266 8.30697 6.15587
235 2 10.0344 13.3728 5.43944
236 2 9.83316 12.0243 4.64761
237 2 13.1741 8.53469 1.79815
238 2 13.2183 8.36298 17.5907
239 2 13.1364 8.65868 4.636
240 2 12.6953 9.87935 5.34284
241 2 9.23941 12.0439 8.25046
242 2 9.24638 11.8819 6.70259
243 2 8.8407 10.4423 3.29554
244 2 9.40866 11.9953 2.4731
245 2 9.96907 13.27 0.959306
246 2 9.80356 11.951 17.7113
247 2 11.0285 8.20408 1.05495
248 2 10.0508 7.00703 1.15639
249 2 14.944 8.40727 3.23343
250 2 13.9657 6.9883 3.11304
251 2 13.8687 6.86217 7.43739
252 2 13.3831 8.18321 6.69261
253 2 14.9909 12.102 7.73779
254 2 13.3151 12.2724 8.23905
255 2 8.99391 9.68623 7.45692
256 2 9.26777 8.64789 8.54801
257 2 1.84856 1.25324 10.9993
258 2 0.320232 1.2986 12.0347
259 2 5.55011 4.9922 10.5524
260 2 5.60352 4.75972 8.95208
261 2 6.33288 6.29021 12.0048
262 2 5.75345 5.24863 12.8539
263 2 4.04281 4.57003 14.0282
264 2 5.31231 3.36486 14.0635
265 2 2.0145 1.27201 13.4894
266 2 2.0001 1.0775 14.9907
267 2 2.0672 5.03665 14.9134
268 2 2.66165 6.11656 14.2275
269 2 4.19768 1.54647 10.1226
270 2 5.07099 2.64389 9.72881
271 2 4.1494 1.41442 14.2901
272 2 5.48682 1.42265 15.1533
273 2 1.83678 4.53264 17.0513
274 2 1.50829 3.41434 16.3509
275 2 2.00419 4.76149 12.7068
276 2 1.26241 3.38029 12.0042
277 2 2.09172 4.90529 10.5281
278 2 3.63401 4.74898 9.69441
279 2 2.05824 1.03588 8.85226
280 2 2.5117 14.1917 9.92229
281 2 5.82397 1.21681 11.2657
282 2 5.93363 1.16824 12.7048
283 2 6.41654 14.1049 16.6474
284 2 5.9403 0.963149 17.0715
285 2 7.27182 4.90269 16.3305
286 2 5.88088 4.94643 15.4697
287 2 0.421818 1.46778 16.3972
288 2 1.7567 1.30566 17.115
289 2 7.81057 1.50576 11.9735
290 2 9.01806 2.67846 12.09
291 2 13.2297 4.65849 8.95001
292 2 13.1037 4.96441 10.5882
293 2 14.9334 4.94206 11.9874
294 2 13.4641 4.8955 12.7054
295 2 13.1103 4.4519 14.9716
296 2 12.7949 3.3047 14.0378
297 2 10.1954 14.1035 14.1966
298 2 9.6176 1.04453 13.3619
299 2 11.0919 5.14978 14.1239
300 2 9.62815 4.87792 13.1858
301 2 12.5303 2.76933 9.80856
302 2 11.5849 1.44797 9.68876
303 2 13.1178 1.42779 15.0919
304 2 11.8318 1.45816 14.2462
305 2 8.88393 3.44895 16.3303
306 2 9.34292 4.57441 15.6786
307 2 9.19637 4.7369 11.0416
308 2 7.861 4.70057 11.808
309 2 9.78657 4.97613 8.75765
310 2 11.0906 4.82695 9.79784
311 2 9.67013 1.14741 10.6096
312 2 9.69417 1.27259 8.8835
313 2 13.2546 1.32188 10.9764
314 2 13.3969 0.977237 12.8478
315 2 13.4794 0.989905 17.1413
316 2 14.2826 14.2158 16.1106
317 2 13.7796 6.26763 16.2634
318 2 14.9962 5.11702 16.2515
319 2 8.03401 1.44618 16.2665
320 2 9.39702 1.47733 15.529
321 2 1.75481 8.30496 11.1411
322 2 1.33343 9.83146 11.8899
323 2 5.69146 11.7646 10.6582
324 2 4.27666 12.1021 9.83386
325 2 5.76563 11.9684 12.7143
326 2 6.29853 13.2666 11.9103
327 2 4.24433 11.9006 13.9961
328 2 5.21772 10.3639 14.0852
329 2 3.28139 8.45066 14.3609
330 2 2.0939 8.48557 13.3592
331 2 2.55739 13.5327 13.8275
332 2 2.03306 12.2616 14.8976
333 2 5.23684 9.88998 9.6426
334 2 5.39831 8.44434 8.99021
335 2 5.59218 8.53379 13.2825
336 2 5.68885 8.41795 14.809
337 2 0.372418 11.7785 16.1634
338 2 1.92116 11.786 16.9519
339 2 0.32615 11.8115 11.8309
340 2 1.82515 11.9666 12.8241
341 2 1.91198 11.9167 9.16765
342 2 1.95555 12.421 10.592
343 2 2.68185 6.97033 9.68418
344 2 3.51294 8.31386 9.78985
345 2 7.02132 8.55659 12.0161
346 2 5.85471 8.4857 11.1612
347 2 6.25642 7.20393 16.2032
348 2 7.22252 8.29134 16.4136
349 2 5.83529 11.8886 17.1914
350 2 5.8335 12.0853 15.6015
351 2 1.66086 8.54408 15.5253
352 2 1.34961 9.95844 16.261
353 2 9.07365 8.3885 13.0199
354 2 9.21701 8.2828 11.2786
355 2 12.6884 10.5023 9.69123
356 2 11.6431 11.7757 9.91521
357 2 13.9968 13.3183 11.9562
358 2 13.3694 12.1509 11.0037
359 2 11.8767 11.8249 14.0964
360 2 13.0086 11.8881 13.2435
361 2 10.8712 8.18857 14.2118
362 2 10.064 7.05217 14.2371
363 2 9.76222 12.2834 15.0209
364 2 9.83748 12.145 13.4333
365 2 12.9804 8.38569 8.87299
366 2 13.2486 8.53593 10.5613
367 2 12.9314 8.65042 13.2366
368 2 12.6722 10.0159 14.12
369 2 9.06201 10.6452 16.6278
370 2 7.84236 11.8693 16.2363
371 2 8.02085 11.8496 12.0923
372 2 8.96468 10.3966 12.0695
373 2 10.094 13.414 9.58786
374 2 9.62313 12.2326 10.5755
375 2 10.2752 7.00589 9.82591
376 2 11.0894 8.20543 9.76449
377 2 14.7976 8.24851 11.825
378 2 13.8361 7.03256 11.9467
379 2 14.8476 8.20349 16.1593
380 2 13.4713 8.34475 15.5472
381 2 13.5513 11.8855 16.8702
382 2 13.5435 12.1511 15.4406
383 2 9.23021 8.3873 15.542
384 2 9.26082 8.49381 17.2521
ITEM: TIMESTEP
400
ITEM: NUMBER OF ATOMS
384
ITEM: BOX BOUNDS pp pp pp
4.6654049692420863e-01 1.5179137033075790e+01
4.3348055518130035e-01 1.4273664734818711e+01
6.2313843955395143e-01 1.7449898590446061e+01
ITEM: ATOMS id type x y z
1 1 1.44093 1.64793 3.31041
2 1 5.06534 4.44386 1.08781
3 1 6.15979 5.14067 3.22312
4 1 4.79984 4.20943 5.11852
5 1 2.51897 0.57665 5.317
6 1 2.44507 5.15654 5.29324
7 1 4.85527 1.81914 1.17203
8 1 4.9617 1.61888 5.23739
9 1 1.15187 4.31522 7.44537
10 1 1.18408 4.29935 3.06777
11 1 2.51601 5.06651 1.053
12 1 2.44883 0.947382 1.09155
13 1 6.13188 0.809142 3.16545
14 1 6.28126 0.759459 7.35969
15 1 6.14178 5.12389 7.2243
16 1 1.45376 1.73736 7.28774
17 1 8.56023 1.79843 3.16307
18 1 12.2812 4.19552 0.828161
19 1 13.4264 4.9909 2.97952
20 1 12.2392 4.11714 5.12838
21 1 9.93903 0.710012 5.10477
22 1 9.83404 5.0868 5.21435
23 1 12.3186 1.58502 1.02239
24 1 12.4295 1.50587 5.23548
25 1 8.61449 4.15056 7.28584
26 1 8.57207 4.38809 3.00839
27 1 9.84219 5.16985 0.902223
28 1 9.76325 0.873312 1.10723
29 1 13.6313 0.906959 3.12645
30 1 13.6053 0.845824 7.5045
31 1 13.5322 5.22366 7.14999
32 1 8.78719 1.50226 7.35212
33 1 1.2639 8.56118 3.1786
34 1 4.94674 11.141 1.08605
35 1 6.21417 12.0509 3.06864
36 1 4.9451 11.2449 5.11745
37 1 2.45334 7.76517 5.39208
38 1 2.36652 11.8512 5.23763
39 1 4.83316 8.60386 1.06398
40 1 4.85673 8.57748 5.0974
41 1 1.19315 11.1682 7.36673
42 1 1.21632 11.1965 3.09644
43 1 2.60039 12.1944 1.02246
44 1 2.41298 7.55979 1.01027
45 1 6.29526 7.7539 3.04595
46 1 6.15783 7.77159 7.27394
47 1 6.02401 11.964 7.32124
48 1 1.17873 8.45784 7.30974
49 1 8.65283 8.61737 3.0092
50 1 12.2962 11.1671 1.00212
51 1 13.4584 12.2071 3.13003
52 1 12.3353 11.3701 5.29341
53 1 9.87879 7.62893 5.25867
54 1 9.76095 12.019 5.30152
55 1 12.4064 8.62523 1.09643
56 1 12.2587 8.76228 5.1127
57 1 8.48658 11.2007 7.29626
58 1 8.73808 11.2017 3.07803
59 1 9.95253 12.1574 1.06347
60 1 9.86896 7.76401 1.02933
61 1 13.5979 7.66803 3.09167
62 1 13.3883 7.81224 7.19676
63 1 13.4536 12.1109 7.52356
64 1 8.52534 8.61995 7.29136
65 1 1.45495 1.66721 11.5702
66 1 4.91497 4.22814 9.3922
67 1 6.19476 5.27852 11.5379
68 1 5.03974 4.45337 13.6497
69 1 2.56011 0.796125 13.7158
70 1 2.46168 5.23785 13.7108
71 1 5.00285 1.62766 9.68118
72 1 4.97589 1.92252 13.7597
73 1 1.15688 4.35882 15.6962
74 1 1.34954 4.17349 11.6642
75 1 2.53854 5.13333 9.63127
76 1 2.56641 0.772705 9.49204
77 1 6.19626 0.768084 11.7341
78 1 6.18303 0.778836 15.9087
79 1 6.22395 5.13981 15.8232
80 1 1.20666 1.65466 15.7246
81 1 8.52695 1.73279 11.5441
82 1 12.4606 4.29318 9.38799
83 1 13.6014 5.11933 11.6243
84 1 12.2132 4.16568 13.6305
85 1 9.72276 0.813184 13.5456
86 1 9.81179 4.9899 13.4083
87 1 12.1995 1.67564 9.56545
88 1 12.2984 1.51262 13.6875
89 1 8.7143 4.13605 15.6973
90 1 8.49507 4.26477 11.3321
91 1 9.9476 5.20291 9.27163
92 1 9.9174 0.788286 9.52412
93 1 13.6412 0.937236 11.5498
94 1 13.5835 0.575546 15.8587
95 1 13.4997 5.1633 15.5268
96 1 8.63243 1.66043 15.6846
97 1 1.23216 8.72845 11.5058
98 1 4.86884 11.2397 9.46441
99 1 6.15105 12.0307 11.5896
100 1 4.87554 11.2206 13.7086
101 1 2.36079 7.69668 13.66
102 1 2.45676 11.9859 13.6297
103 1 4.6869 8.63882 9.46012
104 1 4.75795 8.7177 13.657
105 1 1.29979 11.064 15.8199
106 1 1.19694 11.3255 11.4928
107 1 2.4448 12.0696 9.42705
108 1 2.34536 7.68333 9.4454
109 1 6.08945 7.94062 11.5097
110 1 6.17906 7.80493 15.7706
111 1 6.18173 12.0114 15.7803
112 1 1.23603 8.56548 15.7365
113 1 8.62328 8.66046 11.4894
114 1 12.2063 11.2223 9.41933
115 1 13.4296 12.1878 11.4736
116 1 12.1014 11.2559 13.5492
117 1 9.77028 7.61867 13.7304
118 1 9.75898 12.0576 13.4943
119 1 12.2318 8.54688 9.46792
120 1 12.219 8.60651 13.5635
121 1 8.72056 11.3624 15.8322
122 1 8.51434 11.0937 11.5264
123 1 9.79101 11.9737 9.46263
124 1 9.806 7.72468 9.38641
125 1 13.5396 7.67448 11.5346
126 1 13.5202 7.7697 15.7427
127 1 13.569 11.8635 15.7744
128 1 8.53394 8.65904 15.7469
129 2 0.555068 1.26144 3.19786
130 2 1.33573 2.69704 3.11505
131 2 5.25268 4.72144 1.84063
132 2 5.76994 4.65944 17.0803
133 2 5.61758 4.74639 4.09926
134 2 6.21478 6.29924 3.13419
135 2 3.8157 4.44131 5.03072
136 2 5.19318 4.66455 5.9228
137 2 2.2059 0.746676 4.36021
138 2 3.33609 1.00191 5.27186
139 2 1.75562 4.84929 6.08477
140 2 2.18899 6.09953 5.29263
141 2 5.6244 1.50605 2.01064
142 2 4.97782 2.74598 1.13834
143 2 4.76629 2.61365 5.23415
144 2 5.37538 1.30931 6.18758
145 2 1.73414 4.50248 8.24992
146 2 1.3612 3.35258 7.29294
147 2 1.51824 4.73993 3.7325
148 2 1.72392 4.59988 2.24386
149 2 3.50998 4.88245 1.07022
150 2 2.52835 6.07657 0.784062
151 2 3.49589 1.40288 1.06822
152 2 2.00396 1.47467 2.01238
153 2 5.4521 1.24327 4.0783
154 2 6.289 13.54 3.25583
155 2 5.93122 1.18385 8.17441
156 2 6.1273 13.5692 7.43399
157 2 7.04536 4.73498 7.17008
158 2 6.1256 6.10911 7.11935
159 2 1.69446 1.32696 6.5095
160 2 15.1236 1.29116 7.34288
161 2 8.55859 2.76463 3.27076
162 2 7.60223 1.32977 2.87614
163 2 12.3711 3.09741 0.744543
164 2 12.7149 4.46076 16.7532
165 2 12.7508 4.69121 2.30256
166 2 14.2093 4.69847 2.99064
167 2 12.6454 4.32136 4.31014
168 2 11.2291 4.44948 5.01882
169 2 10.9161 0.914914 4.90957
170 2 9.30249 1.24238 4.38479
171 2 9.91651 6.13586 5.37963
172 2 9.18405 4.8641 4.29133
173 2 11.3084 1.18116 1.05142
174 2 13.0014 1.30847 1.85121
175 2 12.582 2.52768 5.44073
176 2 12.7079 1.34721 6.22896
177 2 9.0757 4.50296 6.23243
178 2 8.67791 3.17979 7.44262
179 2 7.50277 4.82084 3.09086
180 2 9.07587 4.98743 2.18116
181 2 9.49145 4.7812 16.7075
182 2 10.8145 4.96722 0.832044
183 2 9.37579 1.21765 17.1288
184 2 9.3173 1.43857 1.85794
185 2 13.0161 0.953689 3.97311
186 2 13.5436 13.6283 3.17369
187 2 13.2027 1.15903 8.2769
188 2 13.451 13.5392 7.67276
189 2 13.1607 4.54877 6.48162
190 2 14.4934 5.05852 7.24706
191 2 7.72787 1.21416 7.24335
192 2 9.20407 1.5357 6.46389
193 2 1.74872 8.23015 3.92833
194 2 1.43137 9.39779 3.00538
195 2 4.02004 11.447 1.00126
196 2 4.75065 10.1024 1.05597
197 2 7.0922 11.6888 3.09934
198 2 5.80753 11.8265 2.27128
199 2 5.48598 11.4222 4.25664
200 2 5.34553 11.6285 5.89916
201 2 1.72616 8.11852 6.22564
202 2 3.39775 8.07975 5.50443
203 2 2.45059 12.779 5.31636
204 2 3.34699 11.6514 5.28908
205 2 3.83752 8.36583 1.07397
206 2 5.27392 8.21608 16.9451
207 2 5.003 9.58108 5.22919
208 2 5.53606 8.20808 4.06405
209 2 1.65277 11.3036 6.51738
210 2 1.14957 10.1134 7.32712
211 2 15.1209 11.7713 3.48262
212 2 1.77229 11.5089 3.91415
213 2 1.99533 11.9139 1.88854
214 2 2.64218 13.1959 0.891646
215 2 1.86769 8.06523 1.87516
216 2 2.19219 8.03789 17.0534
217 2 7.33143 7.97045 3.20372
218 2 5.68032 7.8053 2.17656
219 2 5.80423 8.19361 6.4687
220 2 7.13199 8.17699 7.05464
221 2 5.76312 11.7296 8.35411
222 2 6.88536 11.5248 7.29908
223 2 14.904 8.18271 7.39385
224 2 1.70102 8.18977 8.37996
225 2 9.04362 8.30251 3.88364
226 2 9.23157 8.09626 2.20408
227 2 11.3944 11.563 0.945
228 2 12.4884 10.121 1.12397
229 2 13.0593 11.788 2.29587
230 2 12.8882 11.9569 3.92093
231 2 12.9459 11.7391 6.02195
232 2 11.2825 11.5294 5.51235
233 2 10.8409 7.9766 5.13761
234 2 9.44725 8.13527 6.07555
235 2 9.98491 12.9826 5.11153
236 2 9.23579 11.6378 4.51084
237 2 13.102 8.23938 2.04029
238 2 12.7954 8.1067 17.1556
239 2 12.6922 8.16458 4.44336
240 2 12.2666 9.72255 5.06129
241 2 9.24657 11.4844 7.99123
242 2 8.88529 11.5787 6.36881
243 2 8.74419 10.3066 2.94765
244 2 9.16081 11.5061 2.28023
245 2 9.89089 13.1734 1.19577
246 2 9.304 11.9295 17.0946
247 2 11.0358 8.03725 0.993492
248 2 9.82386 6.69545 1.04456
249 2 14.6384 7.88479 3.33239
250 2 13.5225 6.60225 3.15412
251 2 13.267 6.77592 7.25651
252 2 12.8672 8.1991 6.3592
253 2 14.3991 11.676 7.49667
254 2 12.9091 11.6141 8.19972
255 2 8.21469 9.57576 7.30448
256 2 8.93773 8.08327 8.25602
257 2 2.06149 1.17974 10.8852
258 2 15.0822 1.40412 11.5171
259 2 5.66563 4.61427 10.195
260 2 5.41154 4.64877 8.50844
261 2 6.17624 6.36709 11.622
262 2 5.90383 4.88499 12.2954
263 2 3.98506 4.76148 13.7853
264 2 4.67028 3.43751 13.6533
265 2 2.15005 0.882228 12.8154
266 2 2.0289 1.37441 14.3637
267 2 2.08291 4.80526 14.4085
268 2 2.53514 6.27552 13.7489
269 2 4.13415 1.18492 9.32285
270 2 4.81487 2.65756 9.5596
271 2 4.00859 1.42315 13.7715
272 2 5.44606 1.41111 14.4774
273 2 1.75734 4.57609 16.6117
274 2 1.17073 3.32628 15.7437
275 2 1.8095 4.3942 12.4364
276 2 1.32296 3.21122 11.7504
277 2 2.13109 4.66251 10.4362
278 2 3.45281 4.90932 9.68764
279 2 2.07507 1.17264 8.95008
280 2 2.46856 13.7841 9.53916
281 2 5.59979 1.06546 10.8689
282 2 5.74867 1.07553 12.7054
283 2 5.88701 13.5841 15.9509
284 2 5.61647 1.02395 16.6758
285 2 6.99985 4.69754 15.8165
286 2 5.92915 4.69927 14.8736
287 2 14.9671 1.33516 15.6881
288 2 1.66649 1.25434 16.5718
289 2 7.63874 1.43702 11.6116
290 2 8.44695 2.89044 11.4123
291 2 12.9445 4.79033 8.6553
292 2 12.971 4.61259 10.4452
293 2 14.6326 4.73198 11.5453
294 2 13.1801 4.79624 12.3764
295 2 12.8166 4.62504 14.1586
296 2 12.3948 3.22456 13.6036
297 2 9.59784 13.5907 13.5754
298 2 9.35721 1.11159 12.6205
299 2 10.6361 4.4971 13.3739
300 2 9.26787 4.72033 12.5112
301 2 12.0667 2.68606 9.42699
302 2 11.2684 1.24112 9.47744
303 2 12.7223 1.15548 14.5801
304 2 11.2567 1.30603 13.4585
305 2 8.61481 3.09338 15.6816
306 2 8.95861 4.43356 14.734
307 2 9.09324 4.65544 10.5357
308 2 7.44711 4.63422 11.4217
309 2 9.47337 4.76197 8.54978
310 2 10.8681 4.94517 9.28618
311 2 9.32151 1.19609 10.3025
312 2 9.54777 1.12162 8.56911
313 2 13.0267 1.40393 10.8436
314 2 13.1316 1.46645 12.2745
315 2 13.1461 1.03242 16.6377
316 2 13.388 13.3809 15.9039
317 2 13.5284 6.04359 15.3746
318 2 14.5033 4.85335 15.6454
319 2 7.51179 1.35271 15.8804
320 2 9.25387 1.21661 14.8432
321 2 1.62535 8.40644 10.6908
322 2 1.19746 9.64771 11.5017
323 2 5.31731 11.6311 10.306
324 2 3.91343 11.4544 9.51296
325 2 5.39909 11.8761 12.2432
326 2 6.25268 12.9942 11.6321
327 2 3.86252 11.486 13.8163
328 2 4.8843 10.0912 13.8098