ITEM: TIMESTEP
0
ITEM: NUMBER OF ATOMS
384
ITEM: BOX BOUNDS pp pp pp
-3.1180958401302572e-01 1.5311809584013066e+01
-3.1180958401302572e-01 1.5311809584013066e+01
-3.1180958401302572e-01 1.5311809584013066e+01
ITEM: ATOMS id type x y z
1 1 4.57679 5.50123 13.6944
2 1 14.8875 3.66367 14.1079
3 1 8.20115 10.8513 3.91518
4 1 1.55859 4.11103 4.68534
5 1 14.0046 11.0534 10.4291
6 1 10.1562 -0.0244194 -0.0179537
7 1 13.1461 9.78511 5.92123
8 1 3.48566 13.6848 7.87681
9 1 3.32305 6.30373 3.20589
10 1 5.30735 8.37688 2.36991
11 1 13.7801 6.32188 1.70807
12 1 0.692367 10.1945 14.1186
13 1 15.0627 5.43363 4.6639
14 1 9.98456 5.97612 7.92121
15 1 12.4056 7.19481 3.96576
16 1 9.83562 2.64919 6.79506
17 1 4.60459 4.17249 11.4106
18 1 7.55062 10.3381 11.1669
19 1 8.27543 1.89543 14.4455
20 1 5.83253 14.0038 0.549654
21 1 -0.277952 13.5963 10.2649
22 1 12.6457 2.09652 6.28487
23 1 10.7129 7.40871 14.2399
24 1 2.2119 7.88472 6.40809
25 1 10.4542 9.69036 5.97773
26 1 -0.282536 8.22967 4.81222
27 1 1.6652 11.2607 4.20606
28 1 6.17365 -0.094545 10.725
29 1 12.1932 8.4542 0.381712
30 1 2.29814 6.67565 12.652
31 1 3.74006 5.65533 5.77839
32 1 7.64075 12.3667 7.75101
33 1 2.57949 3.81144 2.08856
34 1 3.31976 13.3432 0.0677147
35 1 -0.0967938 5.37115 7.46928
36 1 11.1426 14.5448 7.59235
37 1 1.26174 14.8074 2.57217
38 1 6.41618 0.335516 13.3898
39 1 0.207637 9.92258 2.18818
40 1 12.6731 13.1901 12.8323
41 1 1.29363 11.9761 7.9846
42 1 13.2286 14.8362 0.439531
43 1 -0.123887 15.1905 5.01064
44 1 8.80795 12.7708 12.0788
45 1 12.4172 6.75949 6.79319
46 1 9.49869 10.6014 8.40823
47 1 10.544 10.9934 13.3575
48 1 8.99001 12.8372 5.44675
49 1 4.04829 1.51716 14.6149
50 1 6.69928 13.1999 13.7041
51 1 4.43379 6.10378 9.26553
52 1 11.4216 -0.0969869 13.0672
53 1 8.10878 14.4288 3.40524
54 1 4.3962 2.37166 3.28729
55 1 12.1316 11.4523 8.45349
56 1 8.7458 10.8517 -0.213292
57 1 1.53862 1.7361 8.48855
58 1 8.69585 5.89847 11.616
59 1 1.22107 9.19196 8.49846
60 1 10.635 10.5731 3.14594
61 1 11.4957 4.51089 15.2148
62 1 10.9209 6.7156 10.446
63 1 4.94638 10.4223 10.3546
64 1 7.94749 8.55464 1.09697
65 1 14.5919 7.80968 8.4877
66 1 5.26248 14.7619 3.62401
67 1 5.62202 2.26942 6.97039
68 1 1.29568 -0.0251437 10.348
69 1 11.6689 12.7598 1.5126
70 1 8.10674 4.34492 9.29769
71 1 15.2574 12.5827 5.71394
72 1 5.13758 11.4238 7.95676
73 1 0.807368 7.59384 14.5622
74 1 1.07308 4.35508 11.6836
75 1 -0.103901 0.899318 12.6958
76 1 12.4336 12.7126 5.99741
77 1 6.5124 0.898083 1.44852
78 1 5.22926 7.74021 7.34722
79 1 4.69818 3.85809 0.25821
80 1 14.6318 1.53081 0.260033
81 1 8.7843 1.26425 2.88569
82 1 10.1715 2.86217 10.2074
83 1 1.97586 4.56417 8.94346
84 1 12.6683 15.2799 4.82665
85 1 10.1623 4.44247 4.67024
86 1 8.26116 6.29332 15.2182
87 1 2.75694 2.33071 12.3211
88 1 10.1168 15.0402 10.6766
89 1 0.0214213 11.8389 0.424274
90 1 9.92368 3.73613 12.9889
91 1 7.93039 3.8304 3.09944
92 1 3.45334 12.7245 2.72154
93 1 13.7442 3.34545 8.32257
94 1 1.06378 7.50528 1.70711
95 1 13.5608 9.51663 12.896
96 1 6.16563 2.34739 9.6158
97 1 6.00658 4.12469 4.96415
98 1 13.0409 2.11594 12.6389
99 1 9.44842 7.22402 5.61094
100 1 3.08802 8.31472 10.412
101 1 4.27645 12.564 12.0172
102 1 0.247817 12.7339 12.6695
103 1 6.92237 8.32243 4.80264
104 1 10.2096 9.4039 11.0142
105 1 8.10819 14.6608 9.11245
106 1 0.724807 14.5893 14.8093
107 1 7.38606 3.87893 0.612739
108 1 13.59 6.17467 11.3541
109 1 6.57455 9.82429 14.0409
110 1 6.72525 7.05567 13.1783
111 1 3.66994 10.3273 5.96103
112 1 1.66543 1.60839 5.77048
113 1 9.05834 13.0173 1.11863
114 1 4.11235 0.213829 6.02437
115 1 10.3679 8.11545 2.36753
116 1 3.8208 14.5044 10.4834
117 1 6.27696 11.8524 2.07137
118 1 3.1417 11.1769 14.1451
119 1 12.971 3.21476 1.56998
120 1 12.4061 13.5738 10.1924
121 1 14.0948 6.56232 13.8874
122 1 11.4172 0.689063 2.37021
123 1 1.65778 1.52802 1.12949
124 1 7.74882 0.714644 6.86752
125 1 13.0368 10.8806 0.0461404
126 1 14.1536 3.59273 10.8941
127 1 12.9937 3.74289 4.44237
128 1 4.93288 10.2326 0.481908
129 2 4.52916 4.87676 12.9369
130 2 4.69703 5.06241 14.547
131 2 14.6886 4.58995 14.3163
132 2 0.0945933 3.63697 13.6264
133 2 7.74221 10.0755 4.24889
134 2 8.99342 10.7228 3.34745
135 2 0.788771 4.72927 4.53377
136 2 1.81069 3.95163 3.77685
137 2 14.4008 11.9252 10.4575
138 2 13.9069 10.7269 11.3647
139 2 10.6725 0.201823 0.765773
140 2 9.47367 0.652849 -0.0632908
141 2 13.5922 9.97565 6.76473
142 2 13.2152 10.5455 5.32572
143 2 3.67781 14.0964 8.7488
144 2 3.53939 14.3835 7.27865
145 2 3.09567 5.45978 2.78243
146 2 3.60518 6.19337 4.09913
147 2 5.08995 9.05489 1.76222
148 2 4.54185 7.79795 2.5309
149 2 13.4381 6.67871 2.59019
150 2 14.7355 6.25337 1.79471
151 2 0.77524 9.18308 14.2443
152 2 0.388115 10.6288 14.9234
153 2 14.1894 4.91997 4.56536
154 2 14.9228 6.4107 4.60147
155 2 10.8762 5.93786 7.61697
156 2 9.58879 6.53361 7.20672
157 2 12.1014 7.06547 4.8105
158 2 11.5829 7.27566 3.48345
159 2 9.70669 3.06202 7.62541
160 2 9.96186 3.35305 6.0781
161 2 3.89127 3.51534 11.556
162 2 5.31618 3.63484 11.0911
163 2 8.36256 9.80951 10.99
164 2 7.91946 11.2623 11.3115
165 2 7.80256 2.56448 14.9346
166 2 7.58248 1.21916 14.1315
167 2 6.10462 13.5421 -0.242407
168 2 4.85977 13.825 0.528199
169 2 14.4101 13.8153 10.1623
170 2 -0.0704958 13.4422 11.1966
171 2 11.7088 2.1063 6.54679
172 2 12.6961 1.18401 5.89058
173 2 10.9921 7.5299 13.3514
174 2 11.2636 8.01166 14.7268
175 2 1.57728 7.89927 5.7134
176 2 1.87051 8.36741 7.16573
177 2 11.4302 9.71213 6.20698
178 2 10.3486 10.1292 5.1128
179 2 14.4149 8.445 5.04536
180 2 0.00164071 8.8165 4.03796
181 2 1.02838 11.8189 4.67407
182 2 2.36173 10.8675 4.79517
183 2 6.32838 0.734699 10.265
184 2 5.21972 -0.301306 10.6492
185 2 12.568 9.37229 0.310345
186 2 12.8634 7.95827 0.824663
187 2 2.56428 7.41349 12.0109
188 2 3.14156 6.4193 13.0935
189 2 3.16723 6.41343 5.9805
190 2 3.10221 4.98312 5.63197
191 2 7.73547 13.1577 8.33842
192 2 8.06104 12.6116 6.87934
193 2 1.75422 3.38105 1.7562
194 2 3.25148 3.1727 2.47226
195 2 3.15037 12.6412 14.9757
196 2 3.16776 12.9566 0.983888
197 2 0.0720948 5.37286 6.52711
198 2 -0.245356 6.34024 7.61737
199 2 11.6512 14.8569 8.35832
200 2 11.802 13.9131 7.23812
201 2 2.07792 14.3411 2.56175
202 2 1.50629 0.044002 2.08403
203 2 6.3968 14.9261 13.4491
204 2 6.20534 0.425411 12.4267
205 2 0.660795 9.1318 1.85703
206 2 0.694078 10.391 2.87312
207 2 12.3708 14.0972 13.0916
208 2 12.1841 12.5232 13.366
209 2 2.09163 12.5603 7.87369
210 2 0.901668 12.2269 8.80367
211 2 13.6981 0.109016 0.335681
212 2 13.4443 14.3386 15.279
213 2 14.5376 15.2076 4.93591
214 2 0.228484 14.9795 4.13145
215 2 9.24837 13.4527 11.622
216 2 9.52013 12.2417 12.5392
217 2 12.875 7.30125 7.44426
218 2 13.1287 6.09272 6.70831
219 2 8.70364 11.2231 8.31889
220 2 9.67729 10.2938 7.51515
221 2 10.4955 10.2933 12.7118
222 2 10.0325 10.7711 14.1408
223 2 9.87115 13.0955 5.5737
224 2 8.95145 12.0108 4.93614
225 2 4.74251 0.928236 14.2575
226 2 3.48888 1.81195 13.8977
227 2 7.56401 13.1017 13.1985
228 2 6.02622 12.6782 13.2435
229 2 3.65548 5.64787 8.88705
230 2 4.53028 5.65688 10.1121
231 2 10.7483 -0.0654962 13.7661
232 2 11.7812 0.808853 13.0779
233 2 8.36482 -0.291862 3.46612
234 2 8.34757 14.0066 4.25098
235 2 5.1094 1.81781 2.95108
236 2 4.6411 2.96006 4.03817
237 2 12.5339 11.0417 9.22128
238 2 11.1841 11.2095 8.49369
239 2 8.60742 10.312 0.576946
240 2 8.69537 11.7883 0.0583599
241 2 1.42282 1.68337 7.50469
242 2 1.60998 2.65673 8.73322
243 2 8.87953 5.11923 12.1645
244 2 8.03029 6.40716 12.1505
245 2 1.95332 8.95172 9.16853
246 2 1.28006 10.1574 8.3047
247 2 11.2632 11.2403 2.79611
248 2 10.7957 9.70539 2.72449
249 2 11.5653 5.40273 -0.288322
250 2 11.1896 4.32648 14.2564
251 2 10.4204 6.65681 9.62663
252 2 10.2607 6.46258 11.0571
253 2 5.87632 10.1769 10.5904
254 2 4.94364 10.8143 9.46912
255 2 7.91802 7.6928 0.604333
256 2 7.17835 8.74025 1.63464
257 2 14.2008 7.92642 9.35992
258 2 -0.267797 8.44072 8.55252
259 2 6.16366 14.3915 3.8125
260 2 4.75946 14.0077 3.26281
261 2 6.35085 1.60272 6.90857
262 2 4.84301 1.75402 6.76165
263 2 1.34137 0.662419 9.62968
264 2 0.817817 14.7755 10.0578
265 2 10.8342 13.0339 1.10914
266 2 12.2496 13.5788 1.43103
267 2 7.99168 4.93257 10.0429
268 2 8.59208 4.87508 8.55834
269 2 -0.0863874 13.5026 5.64494
270 2 0.00602987 12.1735 6.56287
271 2 6.0476 11.6847 7.84187
272 2 4.65027 12.2574 7.8746
273 2 -0.10786 7.21382 14.4417
274 2 1.40859 7.20909 13.8607
275 2 1.10879 5.19843 12.1297
276 2 0.142322 4.18446 11.4107
277 2 0.192301 0.569522 11.8253
278 2 0.262058 0.216297 13.3227
279 2 13.325 12.966 5.76917
280 2 12.474 12.1815 6.79075
281 2 6.96454 1.33987 0.72514
282 2 6.22808 -0.0168944 1.14781
283 2 5.28424 6.95392 7.95734
284 2 5.69738 8.44349 7.79401
285 2 4.59695 2.96295 -0.156096
286 2 4.05776 3.8329 1.0606
287 2 14.2623 2.20361 0.861912
288 2 14.7961 2.02476 15.1013
289 2 7.90736 0.984376 2.41964
290 2 8.42535 2.08554 3.23522
291 2 9.33834 3.30929 9.83257
292 2 10.1754 1.88055 10.1119
293 2 1.75381 4.52695 9.90946
294 2 1.11552 4.78978 8.54253
295 2 12.2645 0.0873025 4.07993
296 2 12.0334 14.6435 5.15054
297 2 9.97133 5.30379 5.02216
298 2 9.51596 4.30903 3.95105
299 2 9.11176 6.41377 14.7882
300 2 7.57568 6.54 14.599
301 2 2.07189 2.92609 11.9449
302 2 2.69894 1.52435 11.845
303 2 10.8501 14.3815 10.4642
304 2 10.5118 -0.206863 11.478
305 2 0.274248 12.7719 0.61942
306 2 0.108425 11.2293 1.22179
307 2 9.70727 2.84376 13.3266
308 2 10.3129 3.49932 12.1129
309 2 7.16744 3.93944 3.6373
310 2 7.68964 3.77425 2.12389
311 2 2.7812 12.2345 3.34142
312 2 4.17512 12.108 2.65722
313 2 13.4252 2.63657 7.76521
314 2 14.4885 3.85196 7.85505
315 2 1.16553 7.50623 0.684607
316 2 1.80702 6.9489 2.01705
317 2 14.4305 9.58843 13.243
318 2 13.0187 10.0336 13.4694
319 2 5.70123 2.57075 8.68482
320 2 6.80813 3.05178 9.52933
321 2 5.35787 4.80808 5.12533
322 2 5.96938 3.53575 5.71789
323 2 13.0854 2.74416 13.3668
324 2 13.871 1.59988 12.7008
325 2 8.54415 7.16809 5.28465
326 2 9.76316 8.11779 5.62097
327 2 3.5805 7.58031 10.0651
328 2 3.76188 9.05652 10.3377
329 2 4.55808 11.8882 11.3243
330 2 3.56374 12.075 12.5347
331 2 0.334551 11.7965 12.6005
332 2 0.24849 12.8839 13.5924
333 2 6.35726 8.22802 5.65351
334 2 6.38531 8.12785 4.02112
335 2 10.214 9.5859 10.0692
336 2 10.6644 8.57403 11.1276
337 2 8.95214 14.8857 9.64428
338 2 7.3584 14.7538 9.70982
339 2 0.591563 15.0693 0.0182509
340 2 1.70203 14.3696 14.7724
341 2 6.4741 3.89198 0.306924
342 2 7.8908 4.74294 0.474307
343 2 13.7745 5.25403 11.174
344 2 12.6407 6.3597 11.1641
345 2 6.61181 10.3071 13.1711
346 2 7.38294 10.2018 14.4287
347 2 5.92965 6.53312 13.3142
348 2 6.65131 8.00804 13.4902
349 2 4.1508 10.9057 6.58172
350 2 3.72612 9.43762 6.27968
351 2 0.960879 1.05271 5.33877
352 2 1.48012 2.49213 5.40543
353 2 8.71011 13.4532 1.93204
354 2 8.99593 13.78 0.520382
355 2 3.28533 0.709593 5.89467
356 2 4.52263 -0.105961 5.1872
357 2 10.8957 8.12501 1.5533
358 2 9.392 8.09909 2.00114
359 2 2.85608 14.8006 10.6062
360 2 3.90293 13.7417 11.0449
361 2 6.48734 12.6937 1.54518
362 2 7.04029 11.6822 2.67807
363 2 2.24681 10.7375 14.3261
364 2 3.668 10.6767 14.8241
365 2 12.3482 3.69431 0.972113
366 2 13.2921 3.83378 2.19605
367 2 12.5073 12.8061 9.60602
368 2 12.5354 13.311 11.1419
369 2 13.9506 6.55755 12.8999
370 2 13.4462 7.1125 14.3857
371 2 11.8334 1.45816 2.05064
372 2 10.4376 0.894116 2.52875
373 2 0.844146 1.54638 0.605455
374 2 2.39804 1.38307 0.478242
375 2 7.77884 0.12269 7.66547
376 2 8.60235 1.23456 6.91956
377 2 12.4122 11.5105 0.551261
378 2 13.9301 11.2794 0.187093
379 2 13.8259 3.47873 9.96028
380 2 13.5184 3.1733 11.5056
381 2 12.9666 3.11167 5.2382
382 2 12.0906 4.05916 4.29522
383 2 5.48443 10.7696 1.07083
384 2 5.47524 10.05 -0.286949
ITEM: TIMESTEP
200
ITEM: NUMBER OF ATOMS
384
ITEM: BOX BOUNDS pp pp pp
-2.1868351273538700e-01 1.5218683512735430e+01
-2.1868351273538700e-01 1.5218683512735430e+01
-2.1868351273538700e-01 1.5218683512735430e+01
ITEM: ATOMS id type x y z
1 1 4.54086 5.53743 13.191
2 1 14.5129 3.92474 13.9569
3 1 7.62886 10.6949 3.81217
4 1 1.69945 3.78082 4.56141
5 1 13.6215 10.1997 10.2909
6 1 9.95169 0.243014 -0.0218741
7 1 13.3555 9.66666 6.08887
8 1 3.32608 13.5333 7.59953
9 1 3.11108 6.47608 2.89342
10 1 5.48192 7.91682 2.57763
11 1 13.8458 6.54329 1.83575
12 1 0.556931 10.0957 13.7846
13 1 14.9386 5.36194 4.89549
14 1 9.87175 5.91457 7.85186
15 1 12.2348 7.02435 4.03909
16 1 9.90185 2.7854 6.76402
17 1 4.73663 3.95368 11.3013
18 1 7.38548 10.3755 11.3235
19 1 8.34922 1.90055 14.3567
20 1 5.81905 13.8902 0.561447
21 1 -0.209049 13.3587 10.0158
22 1 12.5238 1.86577 6.24736
23 1 10.6194 7.12402 14.1448
24 1 1.98314 7.82978 6.31672
25 1 10.4785 9.16544 5.76772
26 1 15.1428 8.19377 4.67316
27 1 1.77022 11.4229 4.40523
28 1 5.94541 0.27467 10.6269
29 1 12.2124 7.97192 0.268281
30 1 2.25255 6.52279 12.3266
31 1 3.54387 5.73452 5.3394
32 1 7.69838 11.8791 7.87304
33 1 3.17423 3.57045 2.19308
34 1 3.04045 13.2501 0.172493
35 1 -0.0918428 5.29569 7.62245
36 1 10.6323 14.606 7.38473
37 1 1.20433 14.4407 2.30573
38 1 6.05101 0.459117 13.2977
39 1 0.444764 9.87846 2.77051
40 1 12.2291 13.0457 12.5016
41 1 0.935118 12.2839 8.03826
42 1 13.511 14.2254 0.20469
43 1 -0.0875831 14.9916 4.50378
44 1 8.53275 12.7562 11.7268
45 1 12.4263 6.26655 6.80867
46 1 9.72876 10.2105 8.21503
47 1 10.4219 11.0561 12.7793
48 1 8.83963 12.3929 5.3671
49 1 3.86158 1.64778 14.2019
50 1 6.45247 13.2685 13.4207
51 1 4.14373 5.97952 9.28607
52 1 11.222 -0.0478907 13.0193
53 1 7.50265 14.1897 3.56636
54 1 4.67463 2.08368 3.52081
55 1 12.2325 11.3064 8.38288
56 1 8.84465 10.4744 -0.191787
57 1 1.61796 1.7734 8.33708
58 1 8.50028 5.61199 11.6232
59 1 1.15201 9.12219 8.55577
60 1 10.3841 10.4591 3.41329
61 1 11.5055 4.35924 14.8361
62 1 10.5091 6.88585 10.5418
63 1 4.88413 10.2391 10.0675
64 1 8.02393 8.09096 1.30764
65 1 14.242 7.57972 8.60587
66 1 4.92283 14.7448 3.70734
67 1 5.76667 1.87739 6.84697
68 1 1.36829 0.330534 10.3463
69 1 11.5179 12.4203 1.72776
70 1 8.26788 4.2514 9.33262
71 1 15.1954 12.5666 5.63032
72 1 4.95942 11.328 7.57533
73 1 0.944192 7.48279 14.2956
74 1 1.1413 4.2454 11.8498
75 1 -0.0889285 0.598255 12.7471
76 1 12.3808 12.5142 6.03694
77 1 6.23371 1.10087 1.45917
78 1 5.52904 8.13041 7.00734
79 1 4.52826 3.92847 15.2136
80 1 14.6016 1.77296 0.337537
81 1 8.53684 1.31338 2.66354
82 1 10.0804 2.57697 10.294
83 1 1.86357 4.32447 8.89759
84 1 12.6643 15.0693 4.27218
85 1 10.1741 4.75224 4.80367
86 1 8.3401 6.2867 14.9266
87 1 2.78592 2.20914 12.0543
88 1 10.0216 14.736 10.8426
89 1 15.1422 11.2775 0.696535
90 1 9.70235 3.57043 12.7517
91 1 8.03847 3.85174 3.56565
92 1 3.31878 12.6695 2.71239
93 1 13.49 3.53556 8.16293
94 1 0.709787 7.51906 1.67646
95 1 13.3704 9.97863 12.7453
96 1 6.22106 2.79971 9.27906
97 1 5.81157 3.86668 5.13827
98 1 13.021 1.82209 12.6902
99 1 8.96046 7.04246 5.49782
100 1 3.09436 8.25047 10.2415
101 1 4.42783 12.2739 12.057
102 1 0.567445 12.6564 12.4016
103 1 6.78086 8.45658 4.75407
104 1 9.77546 9.52172 10.8127
105 1 7.88449 14.5121 8.9976
106 1 0.806705 14.3704 14.5568
107 1 7.3459 3.99806 0.333715
108 1 13.3603 6.60767 10.7865
109 1 6.68405 9.59413 13.7092
110 1 6.75178 6.85121 13.1205
111 1 3.55454 9.88076 5.5829
112 1 1.52903 1.19204 5.74365
113 1 9.09807 13.2122 1.06449
114 1 3.92144 0.118218 6.14317
115 1 10.4516 8.09445 2.29468
116 1 3.75036 14.2204 10.3679
117 1 5.69315 11.6616 2.17416
118 1 3.18898 11.0832 14.1484
119 1 12.3234 2.9698 1.61926
120 1 12.4866 13.6406 10.0712
121 1 13.8354 6.51522 13.6194
122 1 11.2167 0.918679 2.48705
123 1 1.74236 1.37204 1.07181
124 1 8.07876 0.6228 6.73464
125 1 12.661 10.6514 -0.194818
126 1 13.9986 3.78526 10.7596
127 1 12.6621 4.07753 4.06709
128 1 4.95635 9.68294 0.411345
129 2 4.70504 5.0405 12.3448
130 2 4.39163 5.0996 14.022
131 2 14.3916 4.88529 13.8506
132 2 -0.136117 3.98192 13.4289
133 2 7.2043 9.66066 4.27579
134 2 8.50123 10.5104 3.4078
135 2 0.969003 4.3073 4.5718
136 2 2.10164 3.72448 3.76767
137 2 14.4017 10.731 10.1098
138 2 13.4992 10.1808 11.3437
139 2 10.397 0.688417 0.860815
140 2 9.08284 0.746002 15.1512
141 2 13.453 9.51453 7.11062
142 2 13.1951 10.5358 5.9114
143 2 3.56849 14.0165 8.44361
144 2 3.559 14.1742 6.98069
145 2 3.00815 5.71152 2.29972
146 2 3.26684 5.98373 3.715
147 2 5.20567 8.56762 1.88016
148 2 4.52911 7.36046 2.67229
149 2 13.444 6.39857 2.6179
150 2 14.7205 7.00978 1.96334
151 2 0.799781 9.04079 13.7347
152 2 0.551766 10.3376 14.6939
153 2 13.9697 4.96358 4.72563
154 2 14.9003 6.39347 4.67
155 2 10.6117 6.11571 7.24917
156 2 9.30862 6.52268 7.32312
157 2 12.4347 7.04676 5.03449
158 2 11.5178 7.71433 3.73414
159 2 9.73554 3.1488 7.61743
160 2 10.225 3.68825 6.24785
161 2 4.00476 3.21152 11.3835
162 2 5.34964 3.81649 10.4008
163 2 8.07604 9.85427 11.1722
164 2 7.63219 11.41 11.1572
165 2 8.26544 2.54507 15.0865
166 2 7.48589 1.76907 13.85
167 2 6.67272 13.7353 -0.211595
168 2 4.93981 13.927 0.297008
169 2 14.3463 13.4154 9.83216
170 2 0.077442 13.0321 10.9837
171 2 11.7089 1.7812 6.3944
172 2 12.8133 0.979777 5.63217
173 2 10.8662 7.46783 13.1336
174 2 11.1922 7.35939 14.7915
175 2 1.2553 7.82747 5.65401
176 2 1.60123 8.28632 7.08135
177 2 11.5255 8.99232 5.82339
178 2 10.3598 9.87428 5.09154
179 2 14.6024 8.75737 5.11961
180 2 -0.0677704 8.8195 3.96043
181 2 1.29557 11.937 5.15451
182 2 2.41236 10.8982 4.69629
183 2 6.12589 1.03352 10.0093
184 2 5.05861 -0.0188787 10.4095
185 2 12.5659 8.75614 -0.113023
186 2 13.1378 7.29843 0.859054
187 2 2.48765 7.16263 11.4955
188 2 3.06332 6.23727 12.7425
189 2 3.01655 6.40742 5.76818
190 2 2.94068 4.90158 5.3003
191 2 7.49052 12.7994 8.20862
192 2 8.26832 12.1821 6.8802
193 2 2.7892 2.99405 1.71857
194 2 3.66204 3.00839 2.95548
195 2 3.01735 12.3829 15.0921
196 2 3.04669 13.1086 1.22318
197 2 -0.163093 5.29904 6.53575
198 2 15.0113 6.19664 8.00811
199 2 11.3848 15.1816 7.49
200 2 11.2346 13.9827 7.13109
201 2 2.17836 14.0655 2.45085
202 2 1.38605 -0.0450395 1.83772
203 2 6.09926 14.9064 13.4799
204 2 6.07435 0.544095 12.2268
205 2 0.964795 9.19677 2.45793
206 2 0.993975 10.4518 3.4421
207 2 11.626 13.9988 12.5565
208 2 11.6718 12.3444 12.6166
209 2 1.89538 12.7803 8.14925
210 2 0.448636 12.7486 8.76971
211 2 13.3858 -0.159838 0.307833
212 2 13.4346 14.3078 14.6247
213 2 14.5021 -0.122996 4.09324
214 2 0.369446 15.0444 3.6933
215 2 8.91723 13.6175 11.4157
216 2 9.24635 12.246 12.1146
217 2 12.9529 6.76229 7.39955
218 2 12.9954 5.52529 6.96177
219 2 8.75896 10.7964 8.10188
220 2 9.87642 9.73823 7.43292
221 2 10.2797 10.3942 11.9525
222 2 10.091 10.9374 13.6938
223 2 9.7154 12.2011 5.11256
224 2 8.28929 11.5158 4.97603
225 2 4.67047 1.07015 13.8821
226 2 3.28009 1.68292 13.3408
227 2 7.31453 13.0396 13.1489
228 2 5.78378 12.5914 12.8316
229 2 3.35457 5.5372 9.01496
230 2 4.59743 5.39348 10.0124
231 2 10.8999 0.239424 13.991
232 2 11.9199 0.739251 12.8301
233 2 7.873 15.0834 3.54109
234 2 8.11779 13.7373 4.36423
235 2 5.19408 1.51885 2.99824
236 2 5.35431 2.73679 4.00241
237 2 12.5974 10.855 9.2546
238 2 11.3352 10.8049 8.23338
239 2 8.39065 9.77132 0.520328
240 2 8.77577 11.2789 0.325207
241 2 1.44103 1.61492 7.56714
242 2 1.7721 2.69847 8.38572
243 2 8.95928 4.87654 12.0328
244 2 7.74921 6.16877 12.1453
245 2 1.95796 8.87202 9.20538
246 2 1.14155 10.0077 8.50645
247 2 10.8647 11.1424 2.86307
248 2 10.4362 9.58316 2.75643
249 2 11.0401 5.23522 14.9913
250 2 10.9573 3.98829 14.0405
251 2 10.5367 6.26677 9.69324
252 2 9.6117 6.47441 11.0132
253 2 5.79515 10.209 10.2936
254 2 4.77537 10.8351 9.25538
255 2 7.93605 7.17239 0.512741
256 2 7.32282 7.83624 1.91879
257 2 14.0341 7.12892 9.41975
258 2 15.0145 8.14807 8.97699
259 2 5.90645 14.4238 3.87876
260 2 4.48606 14.0235 3.30771
261 2 6.65155 1.43555 6.93752
262 2 5.12887 1.1771 6.73385
263 2 1.20751 0.884009 9.62603
264 2 0.648792 15.0951 10.1929
265 2 10.8095 12.9767 1.36251
266 2 12.3623 12.9506 1.59616
267 2 8.14284 4.75739 10.2576
268 2 8.85655 4.87636 8.50771
269 2 15.2042 13.4263 5.20812
270 2 0.11419 12.7072 6.59261
271 2 5.83974 11.4914 7.54607
272 2 4.42859 12.1598 7.5334
273 2 0.0981076 7.09523 14.4804
274 2 1.22383 6.9669 13.4161
275 2 1.55992 5.26621 11.7185
276 2 0.325803 4.39067 11.3504
277 2 0.532126 0.816004 11.8759
278 2 0.39732 0.231748 13.3915
279 2 13.3226 12.4014 5.72708
280 2 12.4692 12.2016 6.95195
281 2 6.18229 1.45576 0.727608
282 2 5.89563 0.264118 1.19154
283 2 5.30032 7.32343 7.58856
284 2 5.31104 8.93246 7.30685
285 2 4.41485 3.05578 14.8324
286 2 3.86393 3.91621 0.545986
287 2 13.8601 2.07441 0.799227
288 2 14.6352 2.52178 14.9059
289 2 7.80627 1.38012 1.98109
290 2 8.50476 2.0315 3.27153
291 2 9.5331 3.13503 9.59164
292 2 10.3298 1.5649 10.1968
293 2 1.5257 4.09155 10.0065
294 2 1.18566 4.86927 8.46964
295 2 12.0464 -0.00943838 3.42781
296 2 12.3521 14.2104 4.74635
297 2 9.88383 5.71568 5.00167
298 2 9.52444 4.31185 4.22064
299 2 9.29423 6.71273 14.7045
300 2 7.61294 6.50174 14.238
301 2 2.18286 2.94588 12.0128
302 2 2.66454 1.51833 11.374
303 2 10.8482 14.4968 10.3609
304 2 10.4383 -0.19915 11.6676
305 2 -0.15672 12.2597 0.880852
306 2 0.146785 10.8328 1.50136
307 2 9.245 2.90752 13.107
308 2 10.137 3.13796 12.0164
309 2 7.05655 4.1 4.19267
310 2 8.004 4.24606 2.70173
311 2 2.65548 12.0949 3.30694
312 2 4.16313 12.1403 2.72104
313 2 13.3207 2.73961 7.6751
314 2 14.4001 3.59539 8.02962
315 2 0.944892 7.38969 0.650753
316 2 1.55093 7.19827 2.25483
317 2 14.319 10.099 13.1693
318 2 12.8313 10.4138 13.447
319 2 5.97901 2.56545 8.36833
320 2 7.08349 3.38612 9.26006
321 2 5.00563 4.41798 5.11758
322 2 5.64675 3.23137 5.98327
323 2 13.0009 2.54468 13.3715
324 2 13.858 1.51708 12.7741
325 2 8.12105 7.36443 5.0047
326 2 9.53833 7.80721 5.73552
327 2 3.71389 7.46863 9.88855
328 2 3.66739 8.98527 10.4513
329 2 4.48935 11.6448 11.2913
330 2 3.89033 11.8413 12.8524
331 2 0.277231 11.8401 12.8434
332 2 0.493461 13.3657 13.1025
333 2 6.32903 8.41919 5.68088
334 2 6.17825 8.2039 3.96246
335 2 9.66582 9.97269 9.924
336 2 9.99071 8.57524 10.5627
337 2 8.67621 14.8697 9.63128
338 2 7.15262 14.6569 9.49179
339 2 0.175255 14.361 -0.182376
340 2 1.78319 13.8583 14.853
341 2 6.32269 4.03896 0.271401
342 2 7.85198 4.75918 0.0912781
343 2 13.5423 5.6998 10.7807
344 2 12.3577 6.87184 10.9054
345 2 6.72397 10.1263 12.7302
346 2 7.56631 9.8179 14.1116
347 2 5.91342 6.29081 13.1078
348 2 6.64491 7.82189 13.3282
349 2 3.62722 10.4149 6.30036
350 2 2.88114 9.0982 5.80404
351 2 0.934339 0.539327 5.34365
352 2 1.44779 1.8258 5.02608
353 2 8.55113 13.2913 1.97018
354 2 9.32764 14.1689 0.730703
355 2 3.11538 0.567951 5.75203
356 2 4.49195 -0.130889 5.28169
357 2 11.0492 7.96094 1.57126
358 2 9.5787 8.05038 1.87047
359 2 2.90505 14.8267 10.4779
360 2 3.78589 13.5593 11.04
361 2 6.01421 12.6575 1.86502
362 2 6.28682 11.5066 2.82224
363 2 2.34203 10.4585 14.0162
364 2 3.92135 10.5103 14.7496
365 2 11.8608 3.56966 0.86203
366 2 12.5055 3.58112 2.42521
367 2 12.1454 13.0871 9.31296
368 2 12.2191 13.4383 10.9501
369 2 13.6674 6.82394 12.6392
370 2 13.1105 6.84826 14.2813
371 2 11.6277 1.79048 2.01007
372 2 10.3139 0.975551 2.73158
373 2 0.727974 1.69157 0.831226
374 2 2.02354 0.970415 0.194315
375 2 8.11486 0.0407188 7.60307
376 2 8.85481 1.1624 6.66465
377 2 12.0951 11.3217 0.410551
378 2 13.593 10.9992 0.0584003
379 2 13.7969 3.62879 9.82742
380 2 13.6601 2.96968 11.1823
381 2 12.7158 3.26988 4.59822
382 2 11.7461 4.56516 4.28741
383 2 5.53312 10.3284 0.858715
384 2 5.46968 9.39989 15.0244
ITEM: TIMESTEP
400
ITEM: NUMBER OF ATOMS
384
ITEM: BOX BOUNDS pp pp pp
-1.3021218416963443e-01 1.5130212184169675e+01
-1.3021218416963443e-01 1.5130212184169675e+01
-1.3021218416963443e-01 1.5130212184169675e+01
ITEM: ATOMS id type x y z
1 1 4.51332 5.4283 12.516
2 1 14.6096 3.85321 14.1303
3 1 7.32814 10.761 3.4758
4 1 1.67126 3.53876 4.40113
5 1 13.5075 9.62979 9.90306
6 1 9.47646 0.0330738 15.0225
7 1 13.3123 9.78292 6.39231
8 1 3.52053 13.0082 7.93914
9 1 3.43877 6.11829 2.46946
10 1 5.53548 7.4797 2.16186
11 1 13.8435 6.69968 1.99615
12 1 0.615669 10.096 13.9808
13 1 15.1154 5.2201 4.86495
14 1 9.6305 6.46599 8.08372
15 1 12.2529 6.81762 4.48467
16 1 10.2664 2.6668 6.73986
17 1 4.59592 3.78608 10.6078
18 1 6.88074 10.4702 11.1473
19 1 7.96398 2.07649 14.386
20 1 5.78874 13.5691 0.527661
21 1 -0.111472 13.3694 10.0464
22 1 12.2638 1.99154 5.63541
23 1 10.8091 6.43523 13.4546
24 1 2.04998 8.00169 6.46104
25 1 10.7479 9.02544 5.65908
26 1 15.0173 7.89365 4.78526
27 1 1.6289 11.2806 4.46329
28 1 5.96478 0.545907 10.4074
29 1 12.2833 7.88898 0.111955
30 1 2.13826 6.47105 12.0679
31 1 3.2799 5.66886 5.26629
32 1 7.49284 11.9908 7.74857
33 1 3.23264 3.38808 1.87441
34 1 3.25538 12.9751 0.0211762
35 1 0.0335729 4.91233 7.51017
36 1 10.563 14.6635 7.30138
37 1 0.968011 14.2629 1.77357
38 1 5.93019 0.919131 13.0796
39 1 0.357202 9.70307 2.83629
40 1 12.2584 12.947 12.4067
41 1 1.12798 11.9585 8.13532
42 1 13.5126 13.9 -0.112787
43 1 15.0159 14.8481 4.0874
44 1 8.39045 12.83 11.9084
45 1 11.9967 5.96202 7.14553
46 1 9.66704 10.3458 7.97684
47 1 10.0824 10.9728 12.8239
48 1 8.56658 12.3426 5.36084
49 1 3.69002 1.73704 13.9578
50 1 6.14981 13.4125 13.1869
51 1 4.08368 6.13352 8.67285
52 1 11.2037 0.119596 12.9021
53 1 7.40907 13.9683 3.54674
54 1 4.62186 2.14286 3.75789
55 1 12.1416 11.2309 8.48219
56 1 8.86099 10.2622 -0.00943851
57 1 2.0358 1.46874 8.2001
58 1 8.49808 5.26807 11.6975
59 1 0.666401 9.47927 8.82284
60 1 10.1065 10.597 3.67249
61 1 11.5731 3.91766 14.3984
62 1 10.0661 7.0517 10.488
63 1 4.66138 10.1259 9.71704
64 1 8.25316 8.08291 1.48241
65 1 14.0544 7.27959 8.10497
66 1 4.90101 14.7118 3.71212
67 1 5.77468 1.75764 6.47843
68 1 1.46578 0.154571 10.2813
69 1 11.2201 12.5545 1.90479
70 1 8.85723 3.96677 9.22493
71 1 15.0134 12.5915 5.72195
72 1 4.98767 11.0957 7.24075
73 1 0.792485 7.56509 14.1875
74 1 0.557292 4.12423 11.5743
75 1 -0.124603 0.711672 12.6003
76 1 12.3649 12.7238 5.95713
77 1 6.31207 1.01993 1.10015
78 1 5.59362 8.0417 7.4774
79 1 4.76448 3.99294 14.9724
80 1 14.561 1.69126 0.662041
81 1 8.13915 1.22297 3.02023
82 1 10.3065 2.0689 10.5084
83 1 2.04942 4.18387 8.8202
84 1 12.3502 14.9852 4.28143
85 1 9.79955 4.59715 4.90989
86 1 8.25801 6.19739 14.8357
87 1 2.60272 2.23837 11.5172
88 1 10.1247 14.5171 10.6557
89 1 14.8326 11.3892 0.997609
90 1 9.69159 3.2242 12.7374
91 1 7.56164 3.73141 3.4352
92 1 3.18389 12.7355 2.80674
93 1 13.1388 3.68641 7.90681
94 1 1.2323 7.70459 1.6129
95 1 13.2305 9.77932 12.629
96 1 6.47856 2.80495 8.89908
97 1 6.01484 4.45344 5.55167
98 1 12.7714 2.1076 12.4804
99 1 8.7121 7.19437 5.74576
100 1 2.82246 8.17622 9.94761
101 1 4.27888 12.0864 11.7752
102 1 1.03898 12.2334 12.1182
103 1 6.47166 8.42743 4.62795
104 1 9.23908 9.53396 10.628
105 1 7.578 14.427 8.68906
106 1 1.00905 14.0248 14.1493
107 1 7.01528 3.99692 1.03463
108 1 12.5822 6.52908 11.0211
109 1 6.94261 9.45456 13.6245
110 1 6.75402 6.91824 12.7245
111 1 3.81727 9.64166 5.05725
112 1 1.36214 1.05507 5.6711
113 1 8.75202 12.984 1.24142
114 1 3.62853 15.0116 6.34392
115 1 10.7662 8.22765 2.52532
116 1 3.88808 14.1667 10.1795
117 1 5.28283 11.356 1.7516
118 1 3.22533 10.8257 13.9511
119 1 12.1764 2.94611 1.69287
120 1 12.3839 13.4773 9.82784
121 1 13.8043 6.64976 13.3687
122 1 10.7581 0.687184 2.40513
123 1 1.80536 1.49956 0.877338
124 1 8.20375 0.760454 5.97958
125 1 12.288 10.4633 0.145982
126 1 13.2898 4.00591 10.6344
127 1 12.9443 4.07866 4.36713
128 1 4.74903 9.40401 0.179135
129 2 4.54934 4.63179 11.8965
130 2 4.46957 5.05113 13.452
131 2 14.2206 4.5303 14.3892
132 2 15.1265 4.25367 13.3695
133 2 7.17074 9.92423 3.87376
134 2 8.03883 10.776 2.97205
135 2 1.05532 4.29198 4.34193
136 2 2.20482 3.36845 3.51134
137 2 14.4983 9.59263 9.71062
138 2 13.4719 9.44758 10.9093
139 2 10.0435 0.26101 0.392501
140 2 9.04391 0.68953 14.7626
141 2 13.3215 10.0755 7.30167
142 2 13.4629 10.6636 5.9213
143 2 3.74291 13.5954 8.767
144 2 3.47379 13.5814 7.27943
145 2 3.22953 5.13846 2.02446
146 2 3.3788 6.03083 3.42011
147 2 5.27861 8.22315 1.48169
148 2 4.7452 6.92794 2.39986
149 2 13.4075 6.71996 2.95141
150 2 14.8622 6.97759 2.14667
151 2 0.897636 8.94358 14.1359
152 2 0.0971985 10.452 14.7966
153 2 14.1793 4.72486 4.77955
154 2 -0.113152 6.17131 4.68536
155 2 10.2971 5.92173 7.48818
156 2 9.01879 6.68591 7.34009
157 2 12.1317 6.70772 5.4331
158 2 11.6708 7.51925 4.03317
159 2 9.90879 2.91125 7.54423
160 2 10.0247 3.45193 6.11335
161 2 3.96156 2.93521 10.8713
162 2 5.37396 3.43901 9.99522
163 2 7.52107 9.83389 10.7969
164 2 7.23096 11.3458 11.252
165 2 7.67671 2.6793 15.0031
166 2 7.01364 1.67296 13.8585
167 2 6.093 13.1782 14.9013
168 2 4.8224 13.4371 0.371842
169 2 14.1136 13.6487 9.90222
170 2 0.0959119 12.9523 11.1143
171 2 11.5304 2.02519 6.30054
172 2 12.4417 1.08596 5.34758
173 2 11.1968 6.18077 12.588
174 2 11.2483 6.85541 14.2194
175 2 1.20774 7.918 5.85869
176 2 1.57058 8.17123 7.31506
177 2 11.5944 9.10497 6.02654
178 2 10.6018 9.62152 4.94217
179 2 14.3245 8.14409 5.28414
180 2 -0.121205 8.52551 3.9398
181 2 0.98831 11.5607 5.04449
182 2 2.23208 10.6995 4.98033
183 2 6.04941 1.2198 9.67339
184 2 5.1459 -0.0806335 10.1214
185 2 12.3079 8.99376 0.277976
186 2 12.948 7.33998 0.851407
187 2 2.47095 7.31984 11.4596
188 2 2.85606 5.7987 12.1169
189 2 2.86803 6.38014 5.70981
190 2 2.82358 4.77254 5.04733
191 2 7.36967 12.7431 8.44296
192 2 7.71096 12.3234 6.85171
193 2 2.52613 2.66582 1.36613
194 2 3.92354 2.76628 2.09951
195 2 3.299 12.1288 14.6849
196 2 3.16214 12.797 0.772858
197 2 0.0336764 5.10546 6.64108
198 2 15.0719 5.88905 7.89592
199 2 11.0404 14.9949 8.31594
200 2 11.2082 14.2389 6.7333
201 2 1.78933 13.7361 1.91755
202 2 1.43864 15.0481 1.3665
203 2 5.90945 0.140384 13.3695
204 2 5.93061 0.687213 11.855
205 2 1.0856 9.11048 2.48481
206 2 0.950564 10.4314 3.40486
207 2 11.6942 13.6692 12.6822
208 2 11.6771 12.3302 12.8771
209 2 1.95699 12.4966 8.05403
210 2 0.546825 12.5775 8.78759
211 2 13.6246 14.8308 14.8937
212 2 13.3148 13.4361 14.2477
213 2 13.9235 15.0851 4.1302
214 2 0.102625 14.6164 3.17748
215 2 8.7592 13.3461 11.2232
216 2 8.9671 12.1359 12.2861
217 2 12.2979 6.51155 7.90597
218 2 12.3799 5.10387 7.25468