ITEM: TIMESTEP
0
ITEM: NUMBER OF ATOMS
384
ITEM: BOX BOUNDS pp pp pp
-3.1180958401302572e-01 1.5311809584013066e+01
-3.1180958401302572e-01 1.5311809584013066e+01
-3.1180958401302572e-01 1.5311809584013066e+01
ITEM: ATOMS id type x y z
1 1 4.57679 5.50123 13.6944
2 1 14.8875 3.66367 14.1079
3 1 8.20115 10.8513 3.91518
4 1 1.55859 4.11103 4.68534
5 1 14.0046 11.0534 10.4291
6 1 10.1562 -0.0244194 -0.0179537
7 1 13.1461 9.78511 5.92123
8 1 3.48566 13.6848 7.87681
9 1 3.32305 6.30373 3.20589
10 1 5.30735 8.37688 2.36991
11 1 13.7801 6.32188 1.70807
12 1 0.692367 10.1945 14.1186
13 1 15.0627 5.43363 4.6639
14 1 9.98456 5.97612 7.92121
15 1 12.4056 7.19481 3.96576
16 1 9.83562 2.64919 6.79506
17 1 4.60459 4.17249 11.4106
18 1 7.55062 10.3381 11.1669
19 1 8.27543 1.89543 14.4455
20 1 5.83253 14.0038 0.549654
21 1 -0.277952 13.5963 10.2649
22 1 12.6457 2.09652 6.28487
23 1 10.7129 7.40871 14.2399
24 1 2.2119 7.88472 6.40809
25 1 10.4542 9.69036 5.97773
26 1 -0.282536 8.22967 4.81222
27 1 1.6652 11.2607 4.20606
28 1 6.17365 -0.094545 10.725
29 1 12.1932 8.4542 0.381712
30 1 2.29814 6.67565 12.652
31 1 3.74006 5.65533 5.77839
32 1 7.64075 12.3667 7.75101
33 1 2.57949 3.81144 2.08856
34 1 3.31976 13.3432 0.0677147
35 1 -0.0967938 5.37115 7.46928
36 1 11.1426 14.5448 7.59235
37 1 1.26174 14.8074 2.57217
38 1 6.41618 0.335516 13.3898
39 1 0.207637 9.92258 2.18818
40 1 12.6731 13.1901 12.8323
41 1 1.29363 11.9761 7.9846
42 1 13.2286 14.8362 0.439531
43 1 -0.123887 15.1905 5.01064
44 1 8.80795 12.7708 12.0788
45 1 12.4172 6.75949 6.79319
46 1 9.49869 10.6014 8.40823
47 1 10.544 10.9934 13.3575
48 1 8.99001 12.8372 5.44675
49 1 4.04829 1.51716 14.6149
50 1 6.69928 13.1999 13.7041
51 1 4.43379 6.10378 9.26553
52 1 11.4216 -0.0969869 13.0672
53 1 8.10878 14.4288 3.40524
54 1 4.3962 2.37166 3.28729
55 1 12.1316 11.4523 8.45349
56 1 8.7458 10.8517 -0.213292
57 1 1.53862 1.7361 8.48855
58 1 8.69585 5.89847 11.616
59 1 1.22107 9.19196 8.49846
60 1 10.635 10.5731 3.14594
61 1 11.4957 4.51089 15.2148
62 1 10.9209 6.7156 10.446
63 1 4.94638 10.4223 10.3546
64 1 7.94749 8.55464 1.09697
65 1 14.5919 7.80968 8.4877
66 1 5.26248 14.7619 3.62401
67 1 5.62202 2.26942 6.97039
68 1 1.29568 -0.0251437 10.348
69 1 11.6689 12.7598 1.5126
70 1 8.10674 4.34492 9.29769
71 1 15.2574 12.5827 5.71394
72 1 5.13758 11.4238 7.95676
73 1 0.807368 7.59384 14.5622
74 1 1.07308 4.35508 11.6836
75 1 -0.103901 0.899318 12.6958
76 1 12.4336 12.7126 5.99741
77 1 6.5124 0.898083 1.44852
78 1 5.22926 7.74021 7.34722
79 1 4.69818 3.85809 0.25821
80 1 14.6318 1.53081 0.260033
81 1 8.7843 1.26425 2.88569
82 1 10.1715 2.86217 10.2074
83 1 1.97586 4.56417 8.94346
84 1 12.6683 15.2799 4.82665
85 1 10.1623 4.44247 4.67024
86 1 8.26116 6.29332 15.2182
87 1 2.75694 2.33071 12.3211
88 1 10.1168 15.0402 10.6766
89 1 0.0214213 11.8389 0.424274
90 1 9.92368 3.73613 12.9889
91 1 7.93039 3.8304 3.09944
92 1 3.45334 12.7245 2.72154
93 1 13.7442 3.34545 8.32257
94 1 1.06378 7.50528 1.70711
95 1 13.5608 9.51663 12.896
96 1 6.16563 2.34739 9.6158
97 1 6.00658 4.12469 4.96415
98 1 13.0409 2.11594 12.6389
99 1 9.44842 7.22402 5.61094
100 1 3.08802 8.31472 10.412
101 1 4.27645 12.564 12.0172
102 1 0.247817 12.7339 12.6695
103 1 6.92237 8.32243 4.80264
104 1 10.2096 9.4039 11.0142
105 1 8.10819 14.6608 9.11245
106 1 0.724807 14.5893 14.8093
107 1 7.38606 3.87893 0.612739
108 1 13.59 6.17467 11.3541
109 1 6.57455 9.82429 14.0409
110 1 6.72525 7.05567 13.1783
111 1 3.66994 10.3273 5.96103
112 1 1.66543 1.60839 5.77048
113 1 9.05834 13.0173 1.11863
114 1 4.11235 0.213829 6.02437
115 1 10.3679 8.11545 2.36753
116 1 3.8208 14.5044 10.4834
117 1 6.27696 11.8524 2.07137
118 1 3.1417 11.1769 14.1451
119 1 12.971 3.21476 1.56998
120 1 12.4061 13.5738 10.1924
121 1 14.0948 6.56232 13.8874
122 1 11.4172 0.689063 2.37021
123 1 1.65778 1.52802 1.12949
124 1 7.74882 0.714644 6.86752
125 1 13.0368 10.8806 0.0461404
126 1 14.1536 3.59273 10.8941
127 1 12.9937 3.74289 4.44237
128 1 4.93288 10.2326 0.481908
129 2 4.52916 4.87676 12.9369
130 2 4.69703 5.06241 14.547
131 2 14.6886 4.58995 14.3163
132 2 0.0945933 3.63697 13.6264
133 2 7.74221 10.0755 4.24889
134 2 8.99342 10.7228 3.34745
135 2 0.788771 4.72927 4.53377
136 2 1.81069 3.95163 3.77685
137 2 14.4008 11.9252 10.4575
138 2 13.9069 10.7269 11.3647
139 2 10.6725 0.201823 0.765773
140 2 9.47367 0.652849 -0.0632908
141 2 13.5922 9.97565 6.76473
142 2 13.2152 10.5455 5.32572
143 2 3.67781 14.0964 8.7488
144 2 3.53939 14.3835 7.27865
145 2 3.09567 5.45978 2.78243
146 2 3.60518 6.19337 4.09913
147 2 5.08995 9.05489 1.76222
148 2 4.54185 7.79795 2.5309
149 2 13.4381 6.67871 2.59019
150 2 14.7355 6.25337 1.79471
151 2 0.77524 9.18308 14.2443
152 2 0.388115 10.6288 14.9234
153 2 14.1894 4.91997 4.56536
154 2 14.9228 6.4107 4.60147
155 2 10.8762 5.93786 7.61697
156 2 9.58879 6.53361 7.20672
157 2 12.1014 7.06547 4.8105
158 2 11.5829 7.27566 3.48345
159 2 9.70669 3.06202 7.62541
160 2 9.96186 3.35305 6.0781
161 2 3.89127 3.51534 11.556
162 2 5.31618 3.63484 11.0911
163 2 8.36256 9.80951 10.99
164 2 7.91946 11.2623 11.3115
165 2 7.80256 2.56448 14.9346
166 2 7.58248 1.21916 14.1315
167 2 6.10462 13.5421 -0.242407
168 2 4.85977 13.825 0.528199
169 2 14.4101 13.8153 10.1623
170 2 -0.0704958 13.4422 11.1966
171 2 11.7088 2.1063 6.54679
172 2 12.6961 1.18401 5.89058
173 2 10.9921 7.5299 13.3514
174 2 11.2636 8.01166 14.7268
175 2 1.57728 7.89927 5.7134
176 2 1.87051 8.36741 7.16573
177 2 11.4302 9.71213 6.20698
178 2 10.3486 10.1292 5.1128
179 2 14.4149 8.445 5.04536
180 2 0.00164071 8.8165 4.03796
181 2 1.02838 11.8189 4.67407
182 2 2.36173 10.8675 4.79517
183 2 6.32838 0.734699 10.265
184 2 5.21972 -0.301306 10.6492
185 2 12.568 9.37229 0.310345
186 2 12.8634 7.95827 0.824663
187 2 2.56428 7.41349 12.0109
188 2 3.14156 6.4193 13.0935
189 2 3.16723 6.41343 5.9805
190 2 3.10221 4.98312 5.63197
191 2 7.73547 13.1577 8.33842
192 2 8.06104 12.6116 6.87934
193 2 1.75422 3.38105 1.7562
194 2 3.25148 3.1727 2.47226
195 2 3.15037 12.6412 14.9757
196 2 3.16776 12.9566 0.983888
197 2 0.0720948 5.37286 6.52711
198 2 -0.245356 6.34024 7.61737
199 2 11.6512 14.8569 8.35832
200 2 11.802 13.9131 7.23812
201 2 2.07792 14.3411 2.56175
202 2 1.50629 0.044002 2.08403
203 2 6.3968 14.9261 13.4491
204 2 6.20534 0.425411 12.4267
205 2 0.660795 9.1318 1.85703
206 2 0.694078 10.391 2.87312
207 2 12.3708 14.0972 13.0916
208 2 12.1841 12.5232 13.366
209 2 2.09163 12.5603 7.87369
210 2 0.901668 12.2269 8.80367
211 2 13.6981 0.109016 0.335681
212 2 13.4443 14.3386 15.279
213 2 14.5376 15.2076 4.93591
214 2 0.228484 14.9795 4.13145
215 2 9.24837 13.4527 11.622
216 2 9.52013 12.2417 12.5392
217 2 12.875 7.30125 7.44426
218 2 13.1287 6.09272 6.70831
219 2 8.70364 11.2231 8.31889
220 2 9.67729 10.2938 7.51515
221 2 10.4955 10.2933 12.7118
222 2 10.0325 10.7711 14.1408
223 2 9.87115 13.0955 5.5737
224 2 8.95145 12.0108 4.93614
225 2 4.74251 0.928236 14.2575
226 2 3.48888 1.81195 13.8977
227 2 7.56401 13.1017 13.1985
228 2 6.02622 12.6782 13.2435
229 2 3.65548 5.64787 8.88705
230 2 4.53028 5.65688 10.1121
231 2 10.7483 -0.0654962 13.7661
232 2 11.7812 0.808853 13.0779
233 2 8.36482 -0.291862 3.46612
234 2 8.34757 14.0066 4.25098
235 2 5.1094 1.81781 2.95108
236 2 4.6411 2.96006 4.03817
237 2 12.5339 11.0417 9.22128
238 2 11.1841 11.2095 8.49369
239 2 8.60742 10.312 0.576946
240 2 8.69537 11.7883 0.0583599
241 2 1.42282 1.68337 7.50469
242 2 1.60998 2.65673 8.73322
243 2 8.87953 5.11923 12.1645
244 2 8.03029 6.40716 12.1505
245 2 1.95332 8.95172 9.16853
246 2 1.28006 10.1574 8.3047
247 2 11.2632 11.2403 2.79611
248 2 10.7957 9.70539 2.72449
249 2 11.5653 5.40273 -0.288322
250 2 11.1896 4.32648 14.2564
251 2 10.4204 6.65681 9.62663
252 2 10.2607 6.46258 11.0571
253 2 5.87632 10.1769 10.5904
254 2 4.94364 10.8143 9.46912
255 2 7.91802 7.6928 0.604333
256 2 7.17835 8.74025 1.63464
257 2 14.2008 7.92642 9.35992
258 2 -0.267797 8.44072 8.55252
259 2 6.16366 14.3915 3.8125
260 2 4.75946 14.0077 3.26281
261 2 6.35085 1.60272 6.90857
262 2 4.84301 1.75402 6.76165
263 2 1.34137 0.662419 9.62968
264 2 0.817817 14.7755 10.0578
265 2 10.8342 13.0339 1.10914
266 2 12.2496 13.5788 1.43103
267 2 7.99168 4.93257 10.0429
268 2 8.59208 4.87508 8.55834
269 2 -0.0863874 13.5026 5.64494
270 2 0.00602987 12.1735 6.56287
271 2 6.0476 11.6847 7.84187
272 2 4.65027 12.2574 7.8746
273 2 -0.10786 7.21382 14.4417
274 2 1.40859 7.20909 13.8607
275 2 1.10879 5.19843 12.1297
276 2 0.142322 4.18446 11.4107
277 2 0.192301 0.569522 11.8253
278 2 0.262058 0.216297 13.3227
279 2 13.325 12.966 5.76917
280 2 12.474 12.1815 6.79075
281 2 6.96454 1.33987 0.72514
282 2 6.22808 -0.0168944 1.14781
283 2 5.28424 6.95392 7.95734
284 2 5.69738 8.44349 7.79401
285 2 4.59695 2.96295 -0.156096
286 2 4.05776 3.8329 1.0606
287 2 14.2623 2.20361 0.861912
288 2 14.7961 2.02476 15.1013
289 2 7.90736 0.984376 2.41964
290 2 8.42535 2.08554 3.23522
291 2 9.33834 3.30929 9.83257
292 2 10.1754 1.88055 10.1119
293 2 1.75381 4.52695 9.90946
294 2 1.11552 4.78978 8.54253
295 2 12.2645 0.0873025 4.07993
296 2 12.0334 14.6435 5.15054
297 2 9.97133 5.30379 5.02216
298 2 9.51596 4.30903 3.95105
299 2 9.11176 6.41377 14.7882
300 2 7.57568 6.54 14.599
301 2 2.07189 2.92609 11.9449
302 2 2.69894 1.52435 11.845
303 2 10.8501 14.3815 10.4642
304 2 10.5118 -0.206863 11.478
305 2 0.274248 12.7719 0.61942
306 2 0.108425 11.2293 1.22179
307 2 9.70727 2.84376 13.3266
308 2 10.3129 3.49932 12.1129
309 2 7.16744 3.93944 3.6373
310 2 7.68964 3.77425 2.12389
311 2 2.7812 12.2345 3.34142
312 2 4.17512 12.108 2.65722
313 2 13.4252 2.63657 7.76521
314 2 14.4885 3.85196 7.85505
315 2 1.16553 7.50623 0.684607
316 2 1.80702 6.9489 2.01705
317 2 14.4305 9.58843 13.243
318 2 13.0187 10.0336 13.4694
319 2 5.70123 2.57075 8.68482
320 2 6.80813 3.05178 9.52933
321 2 5.35787 4.80808 5.12533
322 2 5.96938 3.53575 5.71789
323 2 13.0854 2.74416 13.3668
324 2 13.871 1.59988 12.7008
325 2 8.54415 7.16809 5.28465
326 2 9.76316 8.11779 5.62097
327 2 3.5805 7.58031 10.0651
328 2 3.76188 9.05652 10.3377
329 2 4.55808 11.8882 11.3243
330 2 3.56374 12.075 12.5347
331 2 0.334551 11.7965 12.6005
332 2 0.24849 12.8839 13.5924
333 2 6.35726 8.22802 5.65351
334 2 6.38531 8.12785 4.02112
335 2 10.214 9.5859 10.0692
336 2 10.6644 8.57403 11.1276
337 2 8.95214 14.8857 9.64428
338 2 7.3584 14.7538 9.70982
339 2 0.591563 15.0693 0.0182509
340 2 1.70203 14.3696 14.7724
341 2 6.4741 3.89198 0.306924
342 2 7.8908 4.74294 0.474307
343 2 13.7745 5.25403 11.174
344 2 12.6407 6.3597 11.1641
345 2 6.61181 10.3071 13.1711
346 2 7.38294 10.2018 14.4287
347 2 5.92965 6.53312 13.3142
348 2 6.65131 8.00804 13.4902
349 2 4.1508 10.9057 6.58172
350 2 3.72612 9.43762 6.27968
351 2 0.960879 1.05271 5.33877
352 2 1.48012 2.49213 5.40543
353 2 8.71011 13.4532 1.93204
354 2 8.99593 13.78 0.520382
355 2 3.28533 0.709593 5.89467
356 2 4.52263 -0.105961 5.1872
357 2 10.8957 8.12501 1.5533
358 2 9.392 8.09909 2.00114
359 2 2.85608 14.8006 10.6062
360 2 3.90293 13.7417 11.0449
361 2 6.48734 12.6937 1.54518
362 2 7.04029 11.6822 2.67807
363 2 2.24681 10.7375 14.3261
364 2 3.668 10.6767 14.8241
365 2 12.3482 3.69431 0.972113
366 2 13.2921 3.83378 2.19605
367 2 12.5073 12.8061 9.60602
368 2 12.5354 13.311 11.1419
369 2 13.9506 6.55755 12.8999
370 2 13.4462 7.1125 14.3857
371 2 11.8334 1.45816 2.05064
372 2 10.4376 0.894116 2.52875
373 2 0.844146 1.54638 0.605455
374 2 2.39804 1.38307 0.478242
375 2 7.77884 0.12269 7.66547
376 2 8.60235 1.23456 6.91956
377 2 12.4122 11.5105 0.551261
378 2 13.9301 11.2794 0.187093
379 2 13.8259 3.47873 9.96028
380 2 13.5184 3.1733 11.5056
381 2 12.9666 3.11167 5.2382
382 2 12.0906 4.05916 4.29522
383 2 5.48443 10.7696 1.07083
384 2 5.47524 10.05 -0.286949
ITEM: TIMESTEP
200
ITEM: NUMBER OF ATOMS
384
ITEM: BOX BOUNDS pp pp pp
-2.1868351273538700e-01 1.5218683512735430e+01
-2.1868351273538700e-01 1.5218683512735430e+01
-2.1868351273538700e-01 1.5218683512735430e+01
ITEM: ATOMS id type x y z
1 1 4.54556 5.54092 13.177
2 1 14.5122 3.92271 13.9389
3 1 7.6324 10.6633 3.81504
4 1 1.70338 3.7495 4.5632
5 1 13.6451 10.1846 10.296
6 1 9.96997 0.28175 -0.0338576
7 1 13.3456 9.68795 6.10469
8 1 3.33513 13.5052 7.61008
9 1 3.11459 6.49102 2.8853
10 1 5.46622 7.92472 2.58091
11 1 13.8235 6.54943 1.84229
12 1 0.563953 10.0872 13.7447
13 1 14.9421 5.39284 4.88723
14 1 9.89566 5.92506 7.82978
15 1 12.2408 7.00064 4.02796
16 1 9.90093 2.78794 6.78606
17 1 4.73612 3.96479 11.2894
18 1 7.38049 10.3897 11.3448
19 1 8.3538 1.91454 14.3371
20 1 5.82295 13.8966 0.538305
21 1 -0.191394 13.3721 10.0352
22 1 12.5207 1.85162 6.26821
23 1 10.6251 7.13049 14.1325
24 1 1.97455 7.80823 6.30766
25 1 10.5132 9.18463 5.78051
26 1 15.147 8.17849 4.69536
27 1 1.80997 11.4177 4.37833
28 1 5.94474 0.295726 10.6188
29 1 12.2383 7.99814 0.271525
30 1 2.26361 6.47361 12.317
31 1 3.55617 5.72928 5.32701
32 1 7.69796 11.8625 7.85576
33 1 3.14833 3.58007 2.14478
34 1 3.08049 13.2447 0.190097
35 1 -0.111812 5.26582 7.57506
36 1 10.6651 14.5896 7.3638
37 1 1.18618 14.4475 2.31657
38 1 6.06608 0.488185 13.3069
39 1 0.419752 9.88828 2.79747
40 1 12.2127 13.0634 12.4717
41 1 0.923742 12.2909 8.04289
42 1 13.5184 14.238 0.204657
43 1 -0.0874054 14.9996 4.49855
44 1 8.51402 12.7406 11.741
45 1 12.4329 6.26599 6.81931
46 1 9.7362 10.2097 8.19877
47 1 10.3946 11.02 12.7833
48 1 8.85778 12.4237 5.3444
49 1 3.8906 1.64193 14.2081
50 1 6.43419 13.2916 13.4406
51 1 4.15432 5.97858 9.3076
52 1 11.2103 -0.0195586 13.024
53 1 7.50503 14.176 3.5684
54 1 4.70524 2.05265 3.54082
55 1 12.2115 11.3276 8.3895
56 1 8.83973 10.4689 -0.175818
57 1 1.58869 1.79326 8.33306
58 1 8.51219 5.61358 11.6142
59 1 1.13668 9.145 8.53421
60 1 10.3521 10.4641 3.35918
61 1 11.5174 4.37823 14.8314
62 1 10.525 6.88185 10.5308
63 1 4.88997 10.2591 10.0928
64 1 8.01568 8.05792 1.3038
65 1 14.2529 7.53568 8.59832
66 1 4.92137 14.7696 3.69389
67 1 5.76917 1.9052 6.84467
68 1 1.36668 0.348209 10.359
69 1 11.5298 12.4446 1.7531
70 1 8.28363 4.26264 9.35419
71 1 15.1849 12.5608 5.64992
72 1 4.95201 11.3273 7.59217
73 1 0.95149 7.45617 14.2966
74 1 1.1439 4.24644 11.8547
75 1 -0.066461 0.5967 12.7512
76 1 12.3889 12.4866 6.00879
77 1 6.24266 1.09476 1.45128
78 1 5.52641 8.10362 6.98269
79 1 4.53094 3.92238 -0.209143
80 1 14.6004 1.76443 0.30001
81 1 8.50042 1.31887 2.67315
82 1 10.0819 2.59837 10.2991
83 1 1.8729 4.35247 8.88734
84 1 12.6617 15.0505 4.27475
85 1 10.1688 4.77752 4.8006
86 1 8.34659 6.31661 14.9587
87 1 2.79095 2.21687 12.0762
88 1 10.0299 14.7663 10.8275
89 1 15.1619 11.2923 0.696785
90 1 9.68576 3.55624 12.7482
91 1 8.03272 3.86111 3.54477
92 1 3.30288 12.6907 2.71472
93 1 13.5185 3.53852 8.11461
94 1 0.6861 7.54337 1.66103
95 1 13.3699 9.96013 12.7422
96 1 6.20286 2.80223 9.29606
97 1 5.81332 3.86374 5.11663
98 1 13.0252 1.80997 12.6799
99 1 8.96748 7.04218 5.48793
100 1 3.07112 8.23938 10.2351
101 1 4.40421 12.2687 12.051
102 1 0.558867 12.6471 12.4019
103 1 6.79862 8.46459 4.74518
104 1 9.77669 9.49906 10.8202
105 1 7.87317 14.5381 9.01099
106 1 0.843508 14.3754 14.5935
107 1 7.39886 3.96599 0.366788
108 1 13.3367 6.62696 10.7958
109 1 6.66931 9.5825 13.7481
110 1 6.77246 6.87929 13.096
111 1 3.55247 9.87898 5.56266
112 1 1.52705 1.19204 5.73337
113 1 9.11022 13.2003 1.088
114 1 3.91065 0.130023 6.16357
115 1 10.4835 8.07914 2.27142
116 1 3.74712 14.229 10.3604
117 1 5.69804 11.6626 2.15635
118 1 3.16281 11.0601 14.1553
119 1 12.3152 2.9931 1.63184
120 1 12.4872 13.6425 10.0665
121 1 13.8288 6.53526 13.6342
122 1 11.2143 0.912419 2.49393
123 1 1.71438 1.33939 1.06531
124 1 8.04849 0.616164 6.73968
125 1 12.681 10.645 -0.179444
126 1 13.9757 3.80679 10.7599
127 1 12.6278 4.12402 4.05684
128 1 4.97424 9.68222 0.404335
129 2 4.78928 5.12221 12.3286
130 2 4.47327 5.13131 14.0574
131 2 14.2723 4.78402 13.8626
132 2 15.1699 3.93346 13.3577
133 2 7.16212 9.73865 4.23779
134 2 8.51368 10.5344 3.44791
135 2 0.961744 4.30565 4.56682
136 2 2.04834 3.76837 3.70548
137 2 14.3478 10.655 10.1198
138 2 13.4226 10.1674 11.4331
139 2 10.2724 0.662887 0.852213
140 2 9.1538 0.859788 15.0031
141 2 13.393 9.5251 7.01906
142 2 13.1702 10.6736 5.88353
143 2 3.53577 13.9959 8.5305
144 2 3.62276 14.1823 7.08643
145 2 3.07283 5.76714 2.15315
146 2 3.25062 6.05517 3.77167
147 2 5.23919 8.55842 1.93018
148 2 4.50897 7.43099 2.53758
149 2 13.5217 6.40977 2.6651
150 2 14.7537 7.0265 1.94214
151 2 0.770006 9.05329 13.7261
152 2 0.562082 10.3718 14.6829
153 2 14.0594 4.90992 4.61393
154 2 14.8676 6.2681 4.69133
155 2 10.6607 6.03584 7.31225
156 2 9.25938 6.48353 7.41151
157 2 12.4924 7.01613 5.08071
158 2 11.4837 7.6179 3.74981
159 2 9.6817 3.09519 7.70299
160 2 10.1844 3.67443 6.2652
161 2 4.14234 3.23976 11.4401
162 2 5.27305 3.64611 10.4564
163 2 8.07196 9.71697 11.101
164 2 7.69244 11.4256 11.2415
165 2 8.30542 2.67533 14.9785
166 2 7.55402 1.78618 13.8046
167 2 6.50733 13.7231 -0.144086
168 2 4.91093 13.9298 0.323718
169 2 14.4759 13.4235 9.74778
170 2 0.117584 13.0969 10.9747
171 2 11.6815 1.78225 6.43671
172 2 12.7231 0.958758 5.66648
173 2 10.8572 7.33571 13.1945
174 2 11.2394 7.41228 14.751
175 2 1.33256 7.8542 5.56803
176 2 1.55116 8.2689 7.10568
177 2 11.4585 9.02516 5.82548
178 2 10.299 9.80857 4.94155
179 2 14.537 8.71461 5.09337
180 2 0.0467174 8.77071 3.84365
181 2 1.37795 11.9785 5.07968
182 2 2.38794 10.8635 4.66134
183 2 6.05221 1.07056 10.1572
184 2 5.12096 -0.0986876 10.4109
185 2 12.6154 8.81051 0.00300429
186 2 13.1452 7.33247 0.843274
187 2 2.49633 7.16408 11.5688
188 2 3.0081 6.28583 12.7351
189 2 3.09742 6.42915 5.74433
190 2 2.82309 5.02504 5.35865
191 2 7.61288 12.7878 8.21682
192 2 8.11372 12.2059 6.99465
193 2 2.731 3.01148 1.65439
194 2 3.72078 3.06227 2.96835
195 2 3.06419 12.3035 15.1774
196 2 3.01543 13.1333 1.26041
197 2 -0.202757 5.39467 6.60404
198 2 15.0333 6.13488 8.01555
199 2 11.4197 15.175 7.50879
200 2 11.3192 13.9137 7.03773
201 2 2.19056 14.0788 2.52428
202 2 1.34368 -0.185823 1.75203
203 2 6.08831 14.8073 13.4486
204 2 6.06075 0.491136 12.1458
205 2 1.04745 9.36115 2.39639
206 2 1.09263 10.4722 3.26762
207 2 11.6603 13.8993 12.6028
208 2 11.5737 12.2164 12.597
209 2 1.8705 12.8951 8.00179
210 2 0.477614 12.7331 8.8024
211 2 13.4436 -0.214315 0.277741
212 2 13.4381 14.2171 14.6519
213 2 14.4216 15.1983 4.00442
214 2 0.432752 14.9373 3.69731
215 2 8.93463 13.6342 11.3466
216 2 9.17975 12.3225 12.2427
217 2 13.0077 6.71482 7.48888
218 2 12.9769 5.49965 7.00587
219 2 8.75738 10.793 8.26176
220 2 9.99787 9.85518 7.43598
221 2 10.282 10.3788 12.0936
222 2 10.1111 10.8752 13.7133
223 2 9.69558 12.1968 5.06773
224 2 8.24414 11.6258 5.00318
225 2 4.76533 1.17 14.0399
226 2 3.27818 1.71228 13.3968
227 2 7.32217 12.8719 13.0777
228 2 5.69929 12.6215 12.8906
229 2 3.31257 5.49565 9.03296
230 2 4.56676 5.39899 9.98367
231 2 11.013 0.256682 13.961
232 2 11.9749 0.854904 12.7859
233 2 7.89937 15.099 3.60419
234 2 8.22619 13.7497 4.33321
235 2 5.2271 1.4039 2.9871
236 2 5.32502 2.68732 4.00736
237 2 12.6241 10.7939 9.19765
238 2 11.29 10.7356 8.25731
239 2 8.42112 9.73355 0.641485
240 2 8.71402 11.3049 0.332366
241 2 1.52348 1.4859 7.53914
242 2 1.80209 2.61886 8.36472
243 2 8.9962 5.01046 12.0733
244 2 7.72507 6.18345 12.1008
245 2 1.89372 8.91784 9.10336
246 2 1.30497 10.0204 8.51484
247 2 10.799 11.2576 2.85567
248 2 10.359 9.65579 2.78149
249 2 11.1031 5.27918 15.0414
250 2 10.9349 3.91989 14.1759
251 2 10.6047 6.34258 9.68888
252 2 9.62583 6.42955 11.0522
253 2 5.75617 10.2267 10.3324
254 2 4.75535 10.8003 9.34575
255 2 7.90101 7.17027 0.545497
256 2 7.2963 7.75403 1.91349
257 2 14.0081 7.1886 9.42591
258 2 15.0087 8.26783 8.92274
259 2 5.8628 14.484 3.83825
260 2 4.45836 13.9802 3.40527
261 2 6.67544 1.47892 6.92052
262 2 5.16957 1.1733 6.77754
263 2 1.2826 0.973552 9.6089
264 2 0.696044 15.0724 10.2073
265 2 10.7652 12.9896 1.39398
266 2 12.3643 13.0488 1.62773
267 2 8.12947 4.70793 10.2525
268 2 8.79792 4.82619 8.58805
269 2 -0.211323 13.324 5.04369
270 2 0.147024 12.5901 6.60851
271 2 5.82926 11.4894 7.5228
272 2 4.40549 12.163 7.56937
273 2 0.0971088 7.18922 14.4062
274 2 1.24633 6.98734 13.5895
275 2 1.51536 5.3343 11.7985
276 2 0.276439 4.3191 11.3895
277 2 0.498054 0.865203 11.9532
278 2 0.533095 0.274793 13.4113
279 2 13.302 12.5079 5.84907
280 2 12.4324 12.1689 7.01059
281 2 6.25616 1.55166 0.618362
282 2 5.87445 0.0930556 1.2133
283 2 5.30274 7.31302 7.54154
284 2 5.19192 8.88082 7.27881
285 2 4.51913 2.94064 14.8008
286 2 3.99099 3.93419 0.771732
287 2 13.8448 2.14727 0.731982
288 2 14.6933 2.46449 14.9503
289 2 7.78229 1.25363 2.12985
290 2 8.42728 2.07975 3.28029
291 2 9.5331 3.08741 9.63025
292 2 10.3743 1.5526 10.1035
293 2 1.60427 4.12925 9.91614
294 2 1.1106 4.87833 8.51892
295 2 12.0273 0.072687 3.49406
296 2 12.3491 14.2457 4.72382
297 2 9.90381 5.70854 5.00559
298 2 9.5359 4.35168 4.19095
299 2 9.23529 6.66967 14.7121
300 2 7.62019 6.51181 14.2104
301 2 2.29978 2.96308 12.0158
302 2 2.6157 1.5753 11.3479
303 2 10.7828 14.4611 10.3332
304 2 10.3508 -0.0998026 11.6511
305 2 -0.215852 12.2841 0.864882
306 2 0.11587 10.7409 1.59959
307 2 9.24741 2.79297 13.1946
308 2 10.1719 3.25128 12.0945
309 2 7.02544 4.0969 4.1177
310 2 7.89845 4.28318 2.72414
311 2 2.57763 12.1658 3.28067
312 2 4.01484 12.0371 2.74915
313 2 13.2663 2.63832 7.62803
314 2 14.4073 3.77765 8.0581
315 2 0.975748 7.44175 0.721408
316 2 1.621 7.20774 2.27941
317 2 14.3244 10.1303 13.1034
318 2 12.8529 10.3776 13.548
319 2 5.92976 2.63239 8.40514
320 2 7.00153 3.36052 9.20989
321 2 5.07826 4.46352 5.04234
322 2 5.62997 3.14092 5.97278
323 2 12.9599 2.58921 13.4299
324 2 13.9585 1.55068 12.8882
325 2 8.12654 7.32878 4.84548
326 2 9.58427 7.86932 5.72243
327 2 3.57686 7.44975 9.8785
328 2 3.7513 8.95397 10.4435
329 2 4.47664 11.6652 11.2518
330 2 3.83335 11.8821 12.8586
331 2 0.28776 11.7776 12.7124
332 2 0.414976 13.238 13.1647
333 2 6.31684 8.40584 5.5973
334 2 6.25871 8.24032 3.92907
335 2 9.66671 9.99667 10.0968
336 2 9.84331 8.51411 10.6265
337 2 8.68099 14.8576 9.51626
338 2 7.112 14.5706 9.6318
339 2 0.0646661 14.383 -0.139018
340 2 1.81169 13.908 14.9106
341 2 6.30846 4.01067 0.193968
342 2 7.86286 4.81135 0.142241
343 2 13.4977 5.68309 10.6764
344 2 12.4196 6.9136 10.8518
345 2 6.72678 10.223 12.7486
346 2 7.59798 9.71826 14.1702
347 2 5.9415 6.33298 13.0765
348 2 6.5553 7.89566 13.3231
349 2 3.69684 10.4147 6.3331
350 2 2.99207 9.05541 5.76444
351 2 0.953027 0.496383 5.32499
352 2 1.4324 1.76989 5.02159
353 2 8.6322 13.2339 2.00378
354 2 9.36764 14.1543 0.610601
355 2 3.12639 0.583686 5.82122
356 2 4.42656 15.1966 5.28717
357 2 11.0763 7.98871 1.54311
358 2 9.57001 7.97623 1.95296
359 2 2.8847 14.7992 10.4296
360 2 3.69024 13.471 11.0536
361 2 5.97341 12.6692 2.01725
362 2 6.2127 11.3995 2.92841
363 2 2.20092 10.4862 14.099
364 2 3.84233 10.5063 14.7793
365 2 11.7635 3.54769 0.935864
366 2 12.461 3.47634 2.38772
367 2 12.1469 13.0462 9.3346
368 2 12.2974 13.3172 11.1284
369 2 13.6597 6.88051 12.7207
370 2 13.0819 6.81307 14.2553
371 2 11.689 1.83516 2.11386
372 2 10.2 0.896938 2.77671
373 2 0.733317 1.67183 0.818769
374 2 1.97579 1.01649 0.311406
375 2 8.11872 0.121163 7.54027
376 2 8.91683 1.23195 6.66243
377 2 12.1411 11.2502 0.446721
378 2 13.6256 10.9782 0.182583
379 2 13.9062 3.57534 9.81895
380 2 13.608 3.04258 11.1931
381 2 12.7817 3.19666 4.58378
382 2 11.7635 4.62924 4.29381
383 2 5.59429 10.4418 0.820993
384 2 5.43044 9.42922 14.9412
ITEM: TIMESTEP
400
ITEM: NUMBER OF ATOMS
384
ITEM: BOX BOUNDS pp pp pp
-1.3021218416963443e-01 1.5130212184169675e+01
-1.3021218416963443e-01 1.5130212184169675e+01
-1.3021218416963443e-01 1.5130212184169675e+01
ITEM: ATOMS id type x y z
1 1 4.51732 5.43474 12.5443
2 1 14.6104 3.88368 14.1087
3 1 7.31434 10.7582 3.45579
4 1 1.65769 3.53793 4.38106
5 1 13.5215 9.65053 9.89225
6 1 9.45447 0.0243582 15.0132
7 1 13.342 9.78425 6.39882
8 1 3.5292 13.0214 7.95191
9 1 3.41663 6.10759 2.47356
10 1 5.5527 7.49914 2.14597
11 1 13.8483 6.67862 1.97539
12 1 0.638324 10.1141 13.9851
13 1 15.1095 5.21148 4.81896
14 1 9.64391 6.48119 8.10215
15 1 12.2699 6.85565 4.48151
16 1 10.256 2.66146 6.7244
17 1 4.60656 3.79084 10.6195
18 1 6.88595 10.4921 11.1383
19 1 7.99106 2.0671 14.394
20 1 5.76712 13.562 0.526122
21 1 -0.115827 13.389 10.0282
22 1 12.2536 1.98941 5.64357
23 1 10.7762 6.45524 13.4472
24 1 2.06327 7.98882 6.43785
25 1 10.7127 9.04523 5.6642
26 1 14.9853 7.90847 4.78442
27 1 1.61536 11.2938 4.44623
28 1 5.92721 0.542141 10.3809
29 1 12.2877 7.85233 0.107064
30 1 2.11154 6.46334 12.0563
31 1 3.28925 5.66998 5.26625
32 1 7.46819 12.0117 7.71515
33 1 3.2643 3.38217 1.88285
34 1 3.27124 12.9692 0.0313662
35 1 0.0350632 4.91628 7.44605
36 1 10.5847 14.6575 7.32526
37 1 0.999084 14.2656 1.77287
38 1 5.91171 0.907489 13.0854
39 1 0.367226 9.73029 2.86036
40 1 12.2574 12.9447 12.4169
41 1 1.14686 11.9895 8.14387
42 1 13.5279 13.9047 -0.0934376
43 1 15.0199 14.8488 4.08108
44 1 8.38089 12.8338 11.9335
45 1 11.9871 5.94955 7.13531
46 1 9.69169 10.3325 7.9832
47 1 10.0889 10.9863 12.8426
48 1 8.56092 12.3363 5.36329
49 1 3.67726 1.7491 13.9656
50 1 6.16439 13.3922 13.2033
51 1 4.07458 6.15298 8.68023
52 1 11.1949 0.133566 12.8794
53 1 7.40004 13.9766 3.54332
54 1 4.63012 2.16466 3.72329
55 1 12.126 11.2245 8.46932
56 1 8.85696 10.2586 -0.00752098
57 1 2.05739 1.47127 8.19231
58 1 8.49833 5.27479 11.6585
59 1 0.692234 9.46646 8.81449
60 1 10.1241 10.6181 3.67174
61 1 11.599 3.90632 14.4021
62 1 10.0653 7.03563 10.4916
63 1 4.6434 10.1086 9.71562
64 1 8.27449 8.09333 1.51008
65 1 14.0811 7.24568 8.11514
66 1 4.88674 14.723 3.70123
67 1 5.76111 1.77458 6.46254
68 1 1.47499 0.157917 10.287
69 1 11.2088 12.5607 1.89716
70 1 8.84565 3.9806 9.21737
71 1 14.9908 12.5631 5.68384
72 1 4.98344 11.1028 7.24524
73 1 0.751864 7.59595 14.184
74 1 0.548628 4.1646 11.5925
75 1 15.1105 0.707406 12.6092
76 1 12.3515 12.708 5.9806
77 1 6.29942 1.03119 1.10047
78 1 5.60128 8.04133 7.48321
79 1 4.75762 4.008 15.0287
80 1 14.5675 1.69839 0.630903
81 1 8.13809 1.21712 3.03586
82 1 10.3199 2.05459 10.5267
83 1 2.02114 4.17574 8.81427
84 1 12.3327 14.9835 4.30404
85 1 9.76784 4.58367 4.92832
86 1 8.26284 6.19178 14.8361
87 1 2.60168 2.22422 11.509
88 1 10.1172 14.5297 10.6805
89 1 14.8093 11.402 1.01074
90 1 9.67319 3.22402 12.7245
91 1 7.57696 3.73756 3.47039
92 1 3.18948 12.7201 2.83482
93 1 13.133 3.67472 7.86925
94 1 1.2525 7.70234 1.60241
95 1 13.2465 9.74882 12.6316
96 1 6.4826 2.79953 8.91148
97 1 6.03153 4.46226 5.55425
98 1 12.7734 2.13667 12.4584
99 1 8.72725 7.20638 5.75796
100 1 2.84452 8.17326 9.92915
101 1 4.257 12.1024 11.7805
102 1 1.02153 12.2469 12.1283
103 1 6.47744 8.45035 4.61457
104 1 9.23413 9.50349 10.6269
105 1 7.578 14.4306 8.6847
106 1 0.994568 13.9933 14.1448
107 1 7.03406 3.99289 1.0459
108 1 12.5809 6.51561 11.0272
109 1 6.93988 9.47997 13.6175
110 1 6.79129 6.9056 12.7021
111 1 3.82481 9.62639 5.0766
112 1 1.36205 1.03501 5.65922
113 1 8.76459 12.9598 1.24783
114 1 3.61437 15.0226 6.33846
115 1 10.7715 8.23344 2.55817
116 1 3.8828 14.169 10.169
117 1 5.24984 11.3499 1.77694
118 1 3.22976 10.8256 13.9311
119 1 12.2039 2.95543 1.68899
120 1 12.3787 13.4796 9.8259
121 1 13.7729 6.65807 13.3875
122 1 10.7993 0.718777 2.43641
123 1 1.81182 1.50378 0.858407
124 1 8.17397 0.752183 5.98981
125 1 12.2938 10.479 0.165745
126 1 13.2986 4.01187 10.6387
127 1 12.9565 4.07853 4.39152
128 1 4.73233 9.40603 0.199623
129 2 4.63473 4.52556 11.9145
130 2 4.5544 4.98794 13.3256
131 2 14.267 4.55907 14.4514
132 2 -0.0475762 4.1709 13.4064
133 2 7.14358 9.94109 3.94804
134 2 8.15835 10.6456 3.01234
135 2 1.1286 4.28443 4.38018
136 2 2.30002 3.25443 3.4459
137 2 14.4792 9.4655 9.7236
138 2 13.4325 9.58837 10.9123
139 2 10.085 0.274046 0.393778
140 2 8.96043 0.666983 14.8445
141 2 13.1953 9.97603 7.3226
142 2 13.3639 10.577 5.88189
143 2 3.64505 13.6318 8.7998
144 2 3.43182 13.5736 7.28131
145 2 3.33497 5.1731 2.02652
146 2 3.37063 6.0704 3.39289
147 2 5.40116 8.26108 1.44661
148 2 4.78541 6.8605 2.40893
149 2 13.2934 6.49402 2.96002
150 2 14.8642 6.85864 2.20465
151 2 0.849438 8.98294 14.1639
152 2 0.0344225 10.4183 14.8061
153 2 14.2609 4.77889 4.74874
154 2 15.0991 6.21815 4.67952
155 2 10.3409 5.94824 7.55378
156 2 8.90922 6.80688 7.42723
157 2 12.2224 6.72086 5.43433
158 2 11.6582 7.48338 3.99026
159 2 10.1381 2.95402 7.6832
160 2 10.0323 3.3738 6.15487
161 2 3.86084 3.01109 10.8245
162 2 5.31426 3.4197 9.99328
163 2 7.40424 9.78279 10.8862
164 2 7.21496 11.4346 11.0711
165 2 7.76297 2.75634 15.0126
166 2 7.14066 1.70086 13.9694
167 2 6.05733 13.2336 14.8949
168 2 4.85946 13.5095 0.269006
169 2 14.1184 13.4869 9.85599
170 2 0.142404 12.9154 11.0141
171 2 11.478 2.14838 6.31971
172 2 12.4567 0.966767 5.37939
173 2 11.1994 6.21214 12.6411
174 2 11.371 6.7353 14.2349
175 2 1.26891 7.87226 5.81316
176 2 1.62937 8.28661 7.28234
177 2 11.5731 9.01545 5.91957
178 2 10.7036 9.62263 4.8559
179 2 14.2495 8.1409 5.17456
180 2 -0.00767965 8.5108 3.92028
181 2 1.02305 11.7476 5.11613
182 2 2.29146 10.7827 4.97348
183 2 6.13259 1.24287 9.76015
184 2 5.14624 -0.0698123 10.1086
185 2 12.4198 8.8708 0.130357
186 2 12.9126 7.35807 0.823092
187 2 2.51384 7.31339 11.4756
188 2 2.88255 5.84743 12.1325
189 2 2.9147 6.45526 5.69613
190 2 2.82626 4.80376 5.12996
191 2 7.37078 12.8258 8.41989
192 2 7.67141 12.281 6.75859
193 2 2.51714 2.70648 1.33668
194 2 4.01607 2.77275 2.0896
195 2 3.26561 12.0955 14.7163
196 2 3.14579 12.7045 0.859504
197 2 0.0916083 5.18705 6.45459
198 2 15.1014 5.84882 7.88172
199 2 10.8834 14.9996 8.18512
200 2 11.1491 14.274 6.71627
201 2 1.76327 13.6648 1.88908
202 2 1.50591 14.9742 1.44242
203 2 6.01297 0.125872 13.418
204 2 6.05075 0.638032 11.9055
205 2 1.04981 9.03874 2.41882
206 2 1.12393 10.3796 3.41599
207 2 11.8708 13.6461 12.6505
208 2 11.6617 12.2831 12.6742
209 2 1.97942 12.4526 8.1067
210 2 0.618704 12.6025 8.83843
211 2 13.5444 14.7884 14.9074
212 2 13.2199 13.4695 14.2444
213 2 14.0243 15.0768 4.17053
214 2 0.180446 14.5811 3.05493
215 2 8.76684 13.3537 11.2865
216 2 9.0337 12.0886 12.2317
217 2 12.3612 6.45101 7.80952
218 2 12.461 5.12083 7.28419