ITEM: TIMESTEP
0
ITEM: NUMBER OF ATOMS
384
ITEM: BOX BOUNDS pp pp pp
-3.1180958401302572e-01 1.5311809584013066e+01
-3.1180958401302572e-01 1.5311809584013066e+01
-3.1180958401302572e-01 1.5311809584013066e+01
ITEM: ATOMS id type x y z
1 1 4.57679 5.50123 13.6944
2 1 14.8875 3.66367 14.1079
3 1 8.20115 10.8513 3.91518
4 1 1.55859 4.11103 4.68534
5 1 14.0046 11.0534 10.4291
6 1 10.1562 -0.0244194 -0.0179537
7 1 13.1461 9.78511 5.92123
8 1 3.48566 13.6848 7.87681
9 1 3.32305 6.30373 3.20589
10 1 5.30735 8.37688 2.36991
11 1 13.7801 6.32188 1.70807
12 1 0.692367 10.1945 14.1186
13 1 15.0627 5.43363 4.6639
14 1 9.98456 5.97612 7.92121
15 1 12.4056 7.19481 3.96576
16 1 9.83562 2.64919 6.79506
17 1 4.60459 4.17249 11.4106
18 1 7.55062 10.3381 11.1669
19 1 8.27543 1.89543 14.4455
20 1 5.83253 14.0038 0.549654
21 1 -0.277952 13.5963 10.2649
22 1 12.6457 2.09652 6.28487
23 1 10.7129 7.40871 14.2399
24 1 2.2119 7.88472 6.40809
25 1 10.4542 9.69036 5.97773
26 1 -0.282536 8.22967 4.81222
27 1 1.6652 11.2607 4.20606
28 1 6.17365 -0.094545 10.725
29 1 12.1932 8.4542 0.381712
30 1 2.29814 6.67565 12.652
31 1 3.74006 5.65533 5.77839
32 1 7.64075 12.3667 7.75101
33 1 2.57949 3.81144 2.08856
34 1 3.31976 13.3432 0.0677147
35 1 -0.0967938 5.37115 7.46928
36 1 11.1426 14.5448 7.59235
37 1 1.26174 14.8074 2.57217
38 1 6.41618 0.335516 13.3898
39 1 0.207637 9.92258 2.18818
40 1 12.6731 13.1901 12.8323
41 1 1.29363 11.9761 7.9846
42 1 13.2286 14.8362 0.439531
43 1 -0.123887 15.1905 5.01064
44 1 8.80795 12.7708 12.0788
45 1 12.4172 6.75949 6.79319
46 1 9.49869 10.6014 8.40823
47 1 10.544 10.9934 13.3575
48 1 8.99001 12.8372 5.44675
49 1 4.04829 1.51716 14.6149
50 1 6.69928 13.1999 13.7041
51 1 4.43379 6.10378 9.26553
52 1 11.4216 -0.0969869 13.0672
53 1 8.10878 14.4288 3.40524
54 1 4.3962 2.37166 3.28729
55 1 12.1316 11.4523 8.45349
56 1 8.7458 10.8517 -0.213292
57 1 1.53862 1.7361 8.48855
58 1 8.69585 5.89847 11.616
59 1 1.22107 9.19196 8.49846
60 1 10.635 10.5731 3.14594
61 1 11.4957 4.51089 15.2148
62 1 10.9209 6.7156 10.446
63 1 4.94638 10.4223 10.3546
64 1 7.94749 8.55464 1.09697
65 1 14.5919 7.80968 8.4877
66 1 5.26248 14.7619 3.62401
67 1 5.62202 2.26942 6.97039
68 1 1.29568 -0.0251437 10.348
69 1 11.6689 12.7598 1.5126
70 1 8.10674 4.34492 9.29769
71 1 15.2574 12.5827 5.71394
72 1 5.13758 11.4238 7.95676
73 1 0.807368 7.59384 14.5622
74 1 1.07308 4.35508 11.6836
75 1 -0.103901 0.899318 12.6958
76 1 12.4336 12.7126 5.99741
77 1 6.5124 0.898083 1.44852
78 1 5.22926 7.74021 7.34722
79 1 4.69818 3.85809 0.25821
80 1 14.6318 1.53081 0.260033
81 1 8.7843 1.26425 2.88569
82 1 10.1715 2.86217 10.2074
83 1 1.97586 4.56417 8.94346
84 1 12.6683 15.2799 4.82665
85 1 10.1623 4.44247 4.67024
86 1 8.26116 6.29332 15.2182
87 1 2.75694 2.33071 12.3211
88 1 10.1168 15.0402 10.6766
89 1 0.0214213 11.8389 0.424274
90 1 9.92368 3.73613 12.9889
91 1 7.93039 3.8304 3.09944
92 1 3.45334 12.7245 2.72154
93 1 13.7442 3.34545 8.32257
94 1 1.06378 7.50528 1.70711
95 1 13.5608 9.51663 12.896
96 1 6.16563 2.34739 9.6158
97 1 6.00658 4.12469 4.96415
98 1 13.0409 2.11594 12.6389
99 1 9.44842 7.22402 5.61094
100 1 3.08802 8.31472 10.412
101 1 4.27645 12.564 12.0172
102 1 0.247817 12.7339 12.6695
103 1 6.92237 8.32243 4.80264
104 1 10.2096 9.4039 11.0142
105 1 8.10819 14.6608 9.11245
106 1 0.724807 14.5893 14.8093
107 1 7.38606 3.87893 0.612739
108 1 13.59 6.17467 11.3541
109 1 6.57455 9.82429 14.0409
110 1 6.72525 7.05567 13.1783
111 1 3.66994 10.3273 5.96103
112 1 1.66543 1.60839 5.77048
113 1 9.05834 13.0173 1.11863
114 1 4.11235 0.213829 6.02437
115 1 10.3679 8.11545 2.36753
116 1 3.8208 14.5044 10.4834
117 1 6.27696 11.8524 2.07137
118 1 3.1417 11.1769 14.1451
119 1 12.971 3.21476 1.56998
120 1 12.4061 13.5738 10.1924
121 1 14.0948 6.56232 13.8874
122 1 11.4172 0.689063 2.37021
123 1 1.65778 1.52802 1.12949
124 1 7.74882 0.714644 6.86752
125 1 13.0368 10.8806 0.0461404
126 1 14.1536 3.59273 10.8941
127 1 12.9937 3.74289 4.44237
128 1 4.93288 10.2326 0.481908
129 2 4.52916 4.87676 12.9369
130 2 4.69703 5.06241 14.547
131 2 14.6886 4.58995 14.3163
132 2 0.0945933 3.63697 13.6264
133 2 7.74221 10.0755 4.24889
134 2 8.99342 10.7228 3.34745
135 2 0.788771 4.72927 4.53377
136 2 1.81069 3.95163 3.77685
137 2 14.4008 11.9252 10.4575
138 2 13.9069 10.7269 11.3647
139 2 10.6725 0.201823 0.765773
140 2 9.47367 0.652849 -0.0632908
141 2 13.5922 9.97565 6.76473
142 2 13.2152 10.5455 5.32572
143 2 3.67781 14.0964 8.7488
144 2 3.53939 14.3835 7.27865
145 2 3.09567 5.45978 2.78243
146 2 3.60518 6.19337 4.09913
147 2 5.08995 9.05489 1.76222
148 2 4.54185 7.79795 2.5309
149 2 13.4381 6.67871 2.59019
150 2 14.7355 6.25337 1.79471
151 2 0.77524 9.18308 14.2443
152 2 0.388115 10.6288 14.9234
153 2 14.1894 4.91997 4.56536
154 2 14.9228 6.4107 4.60147
155 2 10.8762 5.93786 7.61697
156 2 9.58879 6.53361 7.20672
157 2 12.1014 7.06547 4.8105
158 2 11.5829 7.27566 3.48345
159 2 9.70669 3.06202 7.62541
160 2 9.96186 3.35305 6.0781
161 2 3.89127 3.51534 11.556
162 2 5.31618 3.63484 11.0911
163 2 8.36256 9.80951 10.99
164 2 7.91946 11.2623 11.3115
165 2 7.80256 2.56448 14.9346
166 2 7.58248 1.21916 14.1315
167 2 6.10462 13.5421 -0.242407
168 2 4.85977 13.825 0.528199
169 2 14.4101 13.8153 10.1623
170 2 -0.0704958 13.4422 11.1966
171 2 11.7088 2.1063 6.54679
172 2 12.6961 1.18401 5.89058
173 2 10.9921 7.5299 13.3514
174 2 11.2636 8.01166 14.7268
175 2 1.57728 7.89927 5.7134
176 2 1.87051 8.36741 7.16573
177 2 11.4302 9.71213 6.20698
178 2 10.3486 10.1292 5.1128
179 2 14.4149 8.445 5.04536
180 2 0.00164071 8.8165 4.03796
181 2 1.02838 11.8189 4.67407
182 2 2.36173 10.8675 4.79517
183 2 6.32838 0.734699 10.265
184 2 5.21972 -0.301306 10.6492
185 2 12.568 9.37229 0.310345
186 2 12.8634 7.95827 0.824663
187 2 2.56428 7.41349 12.0109
188 2 3.14156 6.4193 13.0935
189 2 3.16723 6.41343 5.9805
190 2 3.10221 4.98312 5.63197
191 2 7.73547 13.1577 8.33842
192 2 8.06104 12.6116 6.87934
193 2 1.75422 3.38105 1.7562
194 2 3.25148 3.1727 2.47226
195 2 3.15037 12.6412 14.9757
196 2 3.16776 12.9566 0.983888
197 2 0.0720948 5.37286 6.52711
198 2 -0.245356 6.34024 7.61737
199 2 11.6512 14.8569 8.35832
200 2 11.802 13.9131 7.23812
201 2 2.07792 14.3411 2.56175
202 2 1.50629 0.044002 2.08403
203 2 6.3968 14.9261 13.4491
204 2 6.20534 0.425411 12.4267
205 2 0.660795 9.1318 1.85703
206 2 0.694078 10.391 2.87312
207 2 12.3708 14.0972 13.0916
208 2 12.1841 12.5232 13.366
209 2 2.09163 12.5603 7.87369
210 2 0.901668 12.2269 8.80367
211 2 13.6981 0.109016 0.335681
212 2 13.4443 14.3386 15.279
213 2 14.5376 15.2076 4.93591
214 2 0.228484 14.9795 4.13145
215 2 9.24837 13.4527 11.622
216 2 9.52013 12.2417 12.5392
217 2 12.875 7.30125 7.44426
218 2 13.1287 6.09272 6.70831
219 2 8.70364 11.2231 8.31889
220 2 9.67729 10.2938 7.51515
221 2 10.4955 10.2933 12.7118
222 2 10.0325 10.7711 14.1408
223 2 9.87115 13.0955 5.5737
224 2 8.95145 12.0108 4.93614
225 2 4.74251 0.928236 14.2575
226 2 3.48888 1.81195 13.8977
227 2 7.56401 13.1017 13.1985
228 2 6.02622 12.6782 13.2435
229 2 3.65548 5.64787 8.88705
230 2 4.53028 5.65688 10.1121
231 2 10.7483 -0.0654962 13.7661
232 2 11.7812 0.808853 13.0779
233 2 8.36482 -0.291862 3.46612
234 2 8.34757 14.0066 4.25098
235 2 5.1094 1.81781 2.95108
236 2 4.6411 2.96006 4.03817
237 2 12.5339 11.0417 9.22128
238 2 11.1841 11.2095 8.49369
239 2 8.60742 10.312 0.576946
240 2 8.69537 11.7883 0.0583599
241 2 1.42282 1.68337 7.50469
242 2 1.60998 2.65673 8.73322
243 2 8.87953 5.11923 12.1645
244 2 8.03029 6.40716 12.1505
245 2 1.95332 8.95172 9.16853
246 2 1.28006 10.1574 8.3047
247 2 11.2632 11.2403 2.79611
248 2 10.7957 9.70539 2.72449
249 2 11.5653 5.40273 -0.288322
250 2 11.1896 4.32648 14.2564
251 2 10.4204 6.65681 9.62663
252 2 10.2607 6.46258 11.0571
253 2 5.87632 10.1769 10.5904
254 2 4.94364 10.8143 9.46912
255 2 7.91802 7.6928 0.604333
256 2 7.17835 8.74025 1.63464
257 2 14.2008 7.92642 9.35992
258 2 -0.267797 8.44072 8.55252
259 2 6.16366 14.3915 3.8125
260 2 4.75946 14.0077 3.26281
261 2 6.35085 1.60272 6.90857
262 2 4.84301 1.75402 6.76165
263 2 1.34137 0.662419 9.62968
264 2 0.817817 14.7755 10.0578
265 2 10.8342 13.0339 1.10914
266 2 12.2496 13.5788 1.43103
267 2 7.99168 4.93257 10.0429
268 2 8.59208 4.87508 8.55834
269 2 -0.0863874 13.5026 5.64494
270 2 0.00602987 12.1735 6.56287
271 2 6.0476 11.6847 7.84187
272 2 4.65027 12.2574 7.8746
273 2 -0.10786 7.21382 14.4417
274 2 1.40859 7.20909 13.8607
275 2 1.10879 5.19843 12.1297
276 2 0.142322 4.18446 11.4107
277 2 0.192301 0.569522 11.8253
278 2 0.262058 0.216297 13.3227
279 2 13.325 12.966 5.76917
280 2 12.474 12.1815 6.79075
281 2 6.96454 1.33987 0.72514
282 2 6.22808 -0.0168944 1.14781
283 2 5.28424 6.95392 7.95734
284 2 5.69738 8.44349 7.79401
285 2 4.59695 2.96295 -0.156096
286 2 4.05776 3.8329 1.0606
287 2 14.2623 2.20361 0.861912
288 2 14.7961 2.02476 15.1013
289 2 7.90736 0.984376 2.41964
290 2 8.42535 2.08554 3.23522
291 2 9.33834 3.30929 9.83257
292 2 10.1754 1.88055 10.1119
293 2 1.75381 4.52695 9.90946
294 2 1.11552 4.78978 8.54253
295 2 12.2645 0.0873025 4.07993
296 2 12.0334 14.6435 5.15054
297 2 9.97133 5.30379 5.02216
298 2 9.51596 4.30903 3.95105
299 2 9.11176 6.41377 14.7882
300 2 7.57568 6.54 14.599
301 2 2.07189 2.92609 11.9449
302 2 2.69894 1.52435 11.845
303 2 10.8501 14.3815 10.4642
304 2 10.5118 -0.206863 11.478
305 2 0.274248 12.7719 0.61942
306 2 0.108425 11.2293 1.22179
307 2 9.70727 2.84376 13.3266
308 2 10.3129 3.49932 12.1129
309 2 7.16744 3.93944 3.6373
310 2 7.68964 3.77425 2.12389
311 2 2.7812 12.2345 3.34142
312 2 4.17512 12.108 2.65722
313 2 13.4252 2.63657 7.76521
314 2 14.4885 3.85196 7.85505
315 2 1.16553 7.50623 0.684607
316 2 1.80702 6.9489 2.01705
317 2 14.4305 9.58843 13.243
318 2 13.0187 10.0336 13.4694
319 2 5.70123 2.57075 8.68482
320 2 6.80813 3.05178 9.52933
321 2 5.35787 4.80808 5.12533
322 2 5.96938 3.53575 5.71789
323 2 13.0854 2.74416 13.3668
324 2 13.871 1.59988 12.7008
325 2 8.54415 7.16809 5.28465
326 2 9.76316 8.11779 5.62097
327 2 3.5805 7.58031 10.0651
328 2 3.76188 9.05652 10.3377
329 2 4.55808 11.8882 11.3243
330 2 3.56374 12.075 12.5347
331 2 0.334551 11.7965 12.6005
332 2 0.24849 12.8839 13.5924
333 2 6.35726 8.22802 5.65351
334 2 6.38531 8.12785 4.02112
335 2 10.214 9.5859 10.0692
336 2 10.6644 8.57403 11.1276
337 2 8.95214 14.8857 9.64428
338 2 7.3584 14.7538 9.70982
339 2 0.591563 15.0693 0.0182509
340 2 1.70203 14.3696 14.7724
341 2 6.4741 3.89198 0.306924
342 2 7.8908 4.74294 0.474307
343 2 13.7745 5.25403 11.174
344 2 12.6407 6.3597 11.1641
345 2 6.61181 10.3071 13.1711
346 2 7.38294 10.2018 14.4287
347 2 5.92965 6.53312 13.3142
348 2 6.65131 8.00804 13.4902
349 2 4.1508 10.9057 6.58172
350 2 3.72612 9.43762 6.27968
351 2 0.960879 1.05271 5.33877
352 2 1.48012 2.49213 5.40543
353 2 8.71011 13.4532 1.93204
354 2 8.99593 13.78 0.520382
355 2 3.28533 0.709593 5.89467
356 2 4.52263 -0.105961 5.1872
357 2 10.8957 8.12501 1.5533
358 2 9.392 8.09909 2.00114
359 2 2.85608 14.8006 10.6062
360 2 3.90293 13.7417 11.0449
361 2 6.48734 12.6937 1.54518
362 2 7.04029 11.6822 2.67807
363 2 2.24681 10.7375 14.3261
364 2 3.668 10.6767 14.8241
365 2 12.3482 3.69431 0.972113
366 2 13.2921 3.83378 2.19605
367 2 12.5073 12.8061 9.60602
368 2 12.5354 13.311 11.1419
369 2 13.9506 6.55755 12.8999
370 2 13.4462 7.1125 14.3857
371 2 11.8334 1.45816 2.05064
372 2 10.4376 0.894116 2.52875
373 2 0.844146 1.54638 0.605455
374 2 2.39804 1.38307 0.478242
375 2 7.77884 0.12269 7.66547
376 2 8.60235 1.23456 6.91956
377 2 12.4122 11.5105 0.551261
378 2 13.9301 11.2794 0.187093
379 2 13.8259 3.47873 9.96028
380 2 13.5184 3.1733 11.5056
381 2 12.9666 3.11167 5.2382
382 2 12.0906 4.05916 4.29522
383 2 5.48443 10.7696 1.07083
384 2 5.47524 10.05 -0.286949
ITEM: TIMESTEP
200
ITEM: NUMBER OF ATOMS
384
ITEM: BOX BOUNDS pp pp pp
-2.1868351273538700e-01 1.5218683512735430e+01
-2.1868351273538700e-01 1.5218683512735430e+01
-2.1868351273538700e-01 1.5218683512735430e+01
ITEM: ATOMS id type x y z
1 1 4.52691 5.54685 13.1631
2 1 14.4757 3.9079 13.922
3 1 7.63445 10.6498 3.81185
4 1 1.73146 3.77428 4.57292
5 1 13.6572 10.1736 10.3269
6 1 9.96719 0.26753 -0.0360255
7 1 13.3735 9.68246 6.1025
8 1 3.35203 13.4818 7.59724
9 1 3.12732 6.51349 2.87223
10 1 5.44321 7.88865 2.57112
11 1 13.8107 6.54731 1.84129
12 1 0.546239 10.0779 13.7385
13 1 14.9447 5.38268 4.88781
14 1 9.87437 5.93103 7.81641
15 1 12.2554 7.01913 4.03218
16 1 9.87835 2.76989 6.793
17 1 4.74217 3.95955 11.2799
18 1 7.3933 10.3596 11.3111
19 1 8.35686 1.92584 14.3567
20 1 5.81951 13.8797 0.572447
21 1 -0.177328 13.3873 9.99673
22 1 12.5171 1.83253 6.28116
23 1 10.6164 7.1199 14.1663
24 1 1.98409 7.83094 6.32007
25 1 10.5156 9.17128 5.80546
26 1 15.1477 8.14654 4.69855
27 1 1.78763 11.4374 4.36966
28 1 5.94832 0.281775 10.5966
29 1 12.225 8.02094 0.310329
30 1 2.23737 6.4875 12.3232
31 1 3.57849 5.69998 5.30609
32 1 7.70002 11.8693 7.87041
33 1 3.13118 3.56428 2.14076
34 1 3.0983 13.2463 0.157846
35 1 -0.111465 5.26914 7.5939
36 1 10.6551 14.5834 7.37337
37 1 1.17157 14.48 2.30295
38 1 6.05055 0.477443 13.3162
39 1 0.45779 9.88994 2.78557
40 1 12.1951 13.0463 12.4991
41 1 0.916045 12.2826 8.05991
42 1 13.5172 14.2583 0.219978
43 1 -0.0773362 14.9904 4.48485
44 1 8.49816 12.764 11.7456
45 1 12.4575 6.27929 6.83882
46 1 9.74262 10.2612 8.18057
47 1 10.4076 11.0061 12.8199
48 1 8.83744 12.4153 5.31525
49 1 3.86955 1.66491 14.2047
50 1 6.41773 13.3066 13.4343
51 1 4.14873 5.98699 9.31563
52 1 11.2111 -0.0304912 13.0464
53 1 7.4895 14.1928 3.54393
54 1 4.71965 2.06285 3.5457
55 1 12.2412 11.3202 8.37843
56 1 8.79888 10.4683 -0.17749
57 1 1.62735 1.80068 8.35201
58 1 8.48934 5.61337 11.619
59 1 1.11913 9.1387 8.51584
60 1 10.3514 10.4655 3.32418
61 1 11.5313 4.3254 14.8247
62 1 10.5353 6.88949 10.5334
63 1 4.89012 10.2555 10.1023
64 1 8.01541 8.05585 1.30119
65 1 14.262 7.52024 8.59213
66 1 4.90481 14.7653 3.69293
67 1 5.76186 1.91333 6.84129
68 1 1.36628 0.351598 10.3478
69 1 11.5308 12.4358 1.72193
70 1 8.28743 4.25772 9.34046
71 1 15.1879 12.5759 5.64498
72 1 4.92212 11.3287 7.57457
73 1 0.972641 7.45965 14.2941
74 1 1.14993 4.1985 11.8683
75 1 -0.0646623 0.597066 12.7462
76 1 12.3852 12.4692 6.03963
77 1 6.24319 1.0689 1.44878
78 1 5.54123 8.08873 7.00148
79 1 4.53954 3.95241 -0.218028
80 1 14.6008 1.76799 0.274747
81 1 8.50201 1.32129 2.68834
82 1 10.0924 2.59454 10.2819
83 1 1.8927 4.3335 8.87612
84 1 12.6627 15.0397 4.2906
85 1 10.1493 4.77635 4.8057
86 1 8.33105 6.34254 14.939
87 1 2.80514 2.23691 12.0612
88 1 10.022 14.7814 10.8316
89 1 15.1675 11.2907 0.700786
90 1 9.68064 3.55094 12.7413
91 1 8.02903 3.839 3.56977
92 1 3.31599 12.6914 2.75076
93 1 13.5401 3.56061 8.12666
94 1 0.737834 7.56264 1.64852
95 1 13.3713 9.98872 12.7396
96 1 6.2085 2.7766 9.28505
97 1 5.81172 3.8557 5.12372
98 1 13.0209 1.82583 12.6594
99 1 8.97261 7.06216 5.49129
100 1 3.04561 8.25298 10.2648
101 1 4.41745 12.241 12.0802
102 1 0.529239 12.6482 12.4147
103 1 6.817 8.4726 4.73369
104 1 9.78595 9.52836 10.8275
105 1 7.87235 14.5513 9.02064
106 1 0.844717 14.4002 14.5992
107 1 7.36939 3.9579 0.371433
108 1 13.3374 6.61306 10.8166
109 1 6.6694 9.57177 13.7179
110 1 6.74794 6.85992 13.0924
111 1 3.5783 9.86667 5.5768
112 1 1.5395 1.18016 5.72455
113 1 9.12317 13.2131 1.08735
114 1 3.88905 0.141133 6.14831
115 1 10.4804 8.08485 2.27113
116 1 3.77338 14.2356 10.3374
117 1 5.68536 11.6781 2.19732
118 1 3.16233 11.064 14.1563
119 1 12.3323 3.00866 1.60278
120 1 12.486 13.6495 10.0766
121 1 13.8194 6.55639 13.6447
122 1 11.1949 0.927737 2.50169
123 1 1.70413 1.31631 1.07651
124 1 8.04536 0.607503 6.73592
125 1 12.6583 10.6227 -0.173992
126 1 13.9695 3.79611 10.7562
127 1 12.6257 4.10714 4.05723
128 1 4.97797 9.69387 0.377711
129 2 4.77911 5.10629 12.263
130 2 4.38341 5.07091 14.0969
131 2 14.181 4.80365 13.8598
132 2 -0.203154 3.87118 13.4043
133 2 7.0853 9.79884 4.18904
134 2 8.51456 10.531 3.55453
135 2 0.961273 4.38389 4.52426
136 2 2.01567 3.85299 3.5414
137 2 14.4358 10.6696 10.2022
138 2 13.3627 10.1116 11.3169
139 2 10.3206 0.593309 0.903065
140 2 9.21106 0.947908 14.9948
141 2 13.2807 9.41355 7.0101
142 2 13.1738 10.6142 5.93526
143 2 3.45773 13.9379 8.53279
144 2 3.60914 14.1477 7.0829
145 2 3.12322 5.71382 2.03016
146 2 3.13569 5.96994 3.83171
147 2 5.25492 8.60105 1.92031
148 2 4.61532 7.37207 2.59568
149 2 13.3531 6.42445 2.81658
150 2 14.7099 7.14636 1.87889
151 2 0.801875 9.12632 13.7354
152 2 0.531045 10.3828 14.676
153 2 14.1799 4.87639 4.54413
154 2 14.9529 6.35604 4.63894
155 2 10.7352 6.0667 7.35533
156 2 9.30509 6.56247 7.33983
157 2 12.3804 6.90637 5.08962
158 2 11.5442 7.72432 3.71736
159 2 9.76147 3.03671 7.77044
160 2 10.1211 3.59138 6.25756
161 2 4.20447 3.127 11.4472
162 2 5.17024 3.63784 10.4156
163 2 8.19865 9.89818 11.1083
164 2 7.64602 11.3518 11.2778
165 2 8.26219 2.63537 14.944
166 2 7.45018 1.75494 13.8282
167 2 6.4247 13.6408 -0.1678
168 2 4.88603 13.9395 0.370222
169 2 14.4509 13.4715 9.87251
170 2 0.142972 13.1138 11.0514
171 2 11.6331 1.84039 6.45082
172 2 12.7359 1.06772 5.70547
173 2 10.7126 7.32556 13.1661
174 2 11.3295 7.4416 14.6865
175 2 1.30786 7.83534 5.68182
176 2 1.53747 8.19027 7.18898
177 2 11.5117 8.94341 5.8832
178 2 10.3381 9.73738 4.91182
179 2 14.5193 8.7519 5.11145
180 2 0.0543148 8.7781 3.92509
181 2 1.37243 11.8876 5.01478
182 2 2.46117 10.9133 4.64394
183 2 6.0094 1.09661 10.068
184 2 5.14815 -0.205883 10.4902
185 2 12.6941 8.88057 0.0441771
186 2 13.1268 7.22762 0.781496
187 2 2.4784 7.15456 11.6102
188 2 3.14334 6.40145 12.6757
189 2 3.04281 6.38895 5.69264
190 2 2.95438 4.98974 5.2601
191 2 7.77819 12.7462 8.13136
192 2 8.06107 12.1934 7.07248
193 2 2.63983 2.9189 1.82662
194 2 3.6643 3.12497 2.97149
195 2 3.03953 12.3202 15.1274
196 2 3.11333 13.1679 1.27472
197 2 -0.156024 5.27189 6.55084
198 2 15.0492 6.17585 8.14552
199 2 11.4432 15.1406 7.43147
200 2 11.2808 13.9081 7.00738
201 2 2.21006 14.0407 2.5223
202 2 1.36908 -0.120445 1.76266
203 2 6.11861 14.9127 13.4773
204 2 6.02305 0.501437 12.166
205 2 1.04876 9.2485 2.43255
206 2 1.13828 10.5197 3.27331
207 2 11.6861 13.8688 12.5696
208 2 11.631 12.2561 12.5917
209 2 1.81795 12.899 8.13421
210 2 0.553394 12.8007 8.7734
211 2 13.5119 -0.186486 0.357039
212 2 13.4679 14.1622 14.7168
213 2 14.4706 15.1996 3.93441
214 2 0.579572 14.9671 3.76347
215 2 8.80563 13.6718 11.2763
216 2 9.17095 12.387 12.1658
217 2 13.0739 6.62217 7.47735
218 2 12.9358 5.53447 7.01324
219 2 8.8577 10.9196 8.2547
220 2 9.89105 9.80544 7.33552
221 2 10.286 10.3741 12.1166
222 2 10.1447 10.8091 13.6834
223 2 9.61869 12.3007 4.99978
224 2 8.24521 11.7016 4.95117
225 2 4.8498 1.21365 13.9795
226 2 3.31639 1.8086 13.4026
227 2 7.26676 12.9918 13.0638
228 2 5.62672 12.6488 12.9738
229 2 3.34797 5.52816 9.08015
230 2 4.57322 5.34509 10.0769
231 2 11.0384 0.200751 13.9273
232 2 11.8999 0.827218 12.8569
233 2 7.79796 15.1832 3.63962
234 2 8.15405 13.6095 4.2042
235 2 5.20601 1.36557 2.93642
236 2 5.28823 2.63081 4.05507
237 2 12.5001 10.7036 9.21082
238 2 11.3529 10.6885 8.11173
239 2 8.44754 9.74162 0.670577
240 2 8.79328 11.3411 0.352352
241 2 1.49638 1.40877 7.38293
242 2 1.84389 2.66407 8.42268
243 2 9.05078 4.85274 12.1024
244 2 7.79263 6.17169 12.2169
245 2 1.85767 8.98343 9.11749
246 2 1.29544 10.0299 8.46742
247 2 10.7778 11.1858 2.90792
248 2 10.46 9.6842 2.84274
249 2 11.1027 5.2263 14.9985
250 2 10.9757 3.90666 14.0953
251 2 10.5733 6.38377 9.65642
252 2 9.56952 6.47564 10.9691
253 2 5.72669 10.2491 10.4244
254 2 4.79987 10.8347 9.39406
255 2 7.87286 7.22215 0.48629
256 2 7.20146 7.72755 1.94387
257 2 14.1073 7.13495 9.50748
258 2 14.9192 8.31518 8.90543
259 2 5.91334 14.5315 3.97272
260 2 4.51593 13.901 3.35813
261 2 6.64967 1.43653 6.78958
262 2 5.13415 1.21399 6.8177
263 2 1.20819 0.975014 9.63699
264 2 0.701787 15.1387 10.3166
265 2 10.6779 12.9734 1.38614
266 2 12.2927 12.9808 1.69632
267 2 8.12638 4.62233 10.3002
268 2 8.78412 4.78729 8.62292
269 2 -0.196056 13.3675 5.09553
270 2 0.0909947 12.5719 6.58326
271 2 5.92478 11.4891 7.43825
272 2 4.39581 12.2058 7.51427
273 2 -0.0295302 7.22779 14.4108
274 2 1.24554 7.06727 13.5121
275 2 1.44575 5.23421 11.7637
276 2 0.285532 4.2845 11.3669
277 2 0.481495 0.820651 11.9654
278 2 0.495105 0.276175 13.4163
279 2 13.3019 12.5526 5.8614
280 2 12.3407 12.2668 7.06695
281 2 6.23003 1.53175 0.55216
282 2 5.89459 0.112375 1.29132
283 2 5.27576 7.36861 7.4636
284 2 5.11298 8.91296 7.37389
285 2 4.56603 2.93342 14.7788
286 2 4.12727 3.8399 0.684365
287 2 13.8293 2.1953 0.794722
288 2 14.6572 2.58587 14.9914
289 2 7.76546 1.30555 2.01404
290 2 8.31091 2.12876 3.30879
291 2 9.569 3.11829 9.61613
292 2 10.2966 1.55624 10.0438
293 2 1.56371 4.25712 9.95773
294 2 1.24788 4.86141 8.52363
295 2 12.0397 0.0791823 3.4482
296 2 12.2787 14.2439 4.66607
297 2 9.92442 5.79149 5.08487
298 2 9.56869 4.30008 4.12307
299 2 9.2294 6.68119 14.6879
300 2 7.58208 6.40373 14.2364
301 2 2.23502 2.96651 12.1124
302 2 2.62598 1.51629 11.3597
303 2 10.7314 14.5285 10.4108
304 2 10.5055 -0.0541717 11.7332
305 2 15.1972 12.2399 0.945611
306 2 0.110045 10.7718 1.49099
307 2 9.16267 2.73239 13.242
308 2 10.2763 3.17982 12.2044
309 2 6.9697 4.10586 4.13339
310 2 7.86444 4.20441 2.7679
311 2 2.71468 12.1713 3.28571
312 2 4.17623 12.0131 2.76672
313 2 13.1944 2.62468 7.67193
314 2 14.4679 3.78879 7.86442
315 2 0.832232 7.42988 0.701438
316 2 1.60651 7.20065 2.23147
317 2 14.3549 10.169 13.0146
318 2 12.8146 10.3554 13.5554
319 2 5.97086 2.5755 8.36399
320 2 7.08655 3.25502 9.13304
321 2 5.07359 4.50341 5.08265
322 2 5.67705 3.10176 5.94072
323 2 13.0816 2.4746 13.4197
324 2 13.9766 1.47929 12.8836
325 2 8.24003 7.40047 4.82428
326 2 9.57424 7.86355 5.79452
327 2 3.6082 7.42312 9.78791
328 2 3.80901 8.89219 10.4515
329 2 4.47627 11.5977 11.2982
330 2 3.85323 11.902 12.9313
331 2 0.317599 11.8119 12.8343
332 2 0.367858 13.3081 13.1394
333 2 6.32489 8.36878 5.62384
334 2 6.22988 8.18045 3.94217
335 2 9.64893 10.0431 10.106
336 2 9.9868 8.53135 10.6865
337 2 8.65761 14.8461 9.48873
338 2 7.09381 14.5795 9.63846
339 2 0.0645165 14.4658 -0.140738
340 2 1.75385 13.9271 14.9568
341 2 6.30199 4.02489 0.135655
342 2 7.7013 4.76066 0.241662
343 2 13.5753 5.60487 10.644
344 2 12.3594 6.94997 10.9125
345 2 6.69056 10.1311 12.7299
346 2 7.57805 9.70544 14.1161
347 2 5.86347 6.38775 13.1374
348 2 6.61985 7.97114 13.2841
349 2 3.7783 10.441 6.35287
350 2 3.103 9.08602 5.83936
351 2 0.934964 0.389525 5.45026
352 2 1.54308 1.78493 5.03243
353 2 8.70972 13.2277 1.86074
354 2 9.49626 14.1651 0.76541
355 2 3.14051 0.653876 5.81181
356 2 4.36598 15.1323 5.21899
357 2 11.0582 7.90844 1.51939
358 2 9.52411 7.97636 1.99876
359 2 2.86832 14.7702 10.3243
360 2 3.69819 13.4802 11.0045
361 2 5.90959 12.671 1.97681
362 2 6.2165 11.3896 2.86809
363 2 2.28187 10.4818 14.0457
364 2 3.93762 10.5479 14.7525
365 2 11.8196 3.49345 0.895827
366 2 12.5783 3.44407 2.28366
367 2 12.1771 12.98 9.3208
368 2 12.4019 13.391 11.0249
369 2 13.72 6.78749 12.7318
370 2 13.1917 6.8799 14.1799
371 2 11.6973 1.7034 2.09415
372 2 10.3183 0.914471 2.68764
373 2 0.725083 1.67555 0.905342
374 2 2.06831 1.07738 0.217916
375 2 8.05855 0.143489 7.45105
376 2 9.00768 1.24419 6.63192
377 2 12.154 11.2275 0.468937
378 2 13.6444 11.031 0.120627
379 2 13.9422 3.66397 9.85591
380 2 13.5185 3.03498 11.1943
381 2 12.698 3.1527 4.54713
382 2 11.7166 4.64016 4.17078
383 2 5.48303 10.4057 0.767568
384 2 5.42876 9.35117 15.0453
ITEM: TIMESTEP
400
ITEM: NUMBER OF ATOMS
384
ITEM: BOX BOUNDS pp pp pp
-1.3021218416963443e-01 1.5130212184169675e+01
-1.3021218416963443e-01 1.5130212184169675e+01
-1.3021218416963443e-01 1.5130212184169675e+01
ITEM: ATOMS id type x y z
1 1 4.48998 5.38957 12.5186
2 1 14.6123 3.87644 14.0975
3 1 7.30029 10.7795 3.44668
4 1 1.6457 3.54567 4.36958
5 1 13.5471 9.65516 9.88209
6 1 9.4595 0.00811928 15.0151
7 1 13.326 9.76508 6.43101
8 1 3.52362 13.0166 7.94741
9 1 3.41245 6.10659 2.47353
10 1 5.55227 7.4792 2.12149
11 1 13.8532 6.66897 1.98555
12 1 0.638577 10.0953 13.9523
13 1 15.0972 5.22144 4.84323
14 1 9.62568 6.48229 8.09657
15 1 12.2657 6.84234 4.46759
16 1 10.2592 2.6592 6.74872
17 1 4.65081 3.78552 10.6468
18 1 6.87616 10.499 11.1222
19 1 7.98197 2.02787 14.3689
20 1 5.77836 13.5527 0.542376
21 1 15.125 13.3809 10.024
22 1 12.2504 1.97858 5.65949
23 1 10.7633 6.45529 13.429
24 1 2.06452 7.97939 6.4369
25 1 10.6919 9.05059 5.66997
26 1 15.0011 7.89559 4.78652
27 1 1.6355 11.3088 4.43619
28 1 5.91555 0.56586 10.4203
29 1 12.3224 7.8503 0.118483
30 1 2.11189 6.44727 12.0806
31 1 3.27605 5.67968 5.28146
32 1 7.50617 11.9979 7.7558
33 1 3.26899 3.38233 1.8847
34 1 3.26048 12.9333 0.0216291
35 1 0.0583457 4.90403 7.44632
36 1 10.5716 14.6712 7.33378
37 1 1.00236 14.2516 1.77723
38 1 5.91976 0.916131 13.0675
39 1 0.369747 9.75335 2.83057
40 1 12.2666 12.9611 12.3876
41 1 1.14053 12.018 8.13457
42 1 13.5158 13.9149 -0.0961908
43 1 15.0638 14.8596 4.07307
44 1 8.38574 12.837 11.928
45 1 11.975 5.95169 7.13979
46 1 9.70418 10.3435 7.94424
47 1 10.1034 10.9666 12.8202
48 1 8.53725 12.3345 5.37511
49 1 3.70219 1.72751 14.0121
50 1 6.14807 13.3953 13.1967
51 1 4.09807 6.1369 8.67302
52 1 11.1929 0.0979749 12.8817
53 1 7.40284 13.9804 3.53941
54 1 4.62157 2.14858 3.70503
55 1 12.1374 11.2305 8.48638
56 1 8.86312 10.222 0.00716524
57 1 2.08266 1.46319 8.19495
58 1 8.51625 5.25726 11.6748
59 1 0.697593 9.47033 8.81692
60 1 10.1189 10.5871 3.65384
61 1 11.5972 3.90164 14.3855
62 1 10.0666 7.02524 10.4851
63 1 4.66617 10.0875 9.71329
64 1 8.25143 8.10478 1.50577
65 1 14.0766 7.24769 8.12554
66 1 4.8894 14.7634 3.68145
67 1 5.75855 1.77622 6.46223
68 1 1.46705 0.159978 10.2962
69 1 11.2184 12.5582 1.89248
70 1 8.82758 3.95441 9.24023
71 1 15.0002 12.5732 5.66682
72 1 4.96519 11.1241 7.25689
73 1 0.748904 7.56755 14.1867
74 1 0.542814 4.17498 11.5917
75 1 15.1028 0.721038 12.5988
76 1 12.3632 12.7181 5.98457
77 1 6.31673 1.0383 1.12407
78 1 5.57099 8.04591 7.46467
79 1 4.7559 4.03823 15.0406
80 1 14.5912 1.68615 0.603647
81 1 8.15478 1.22006 3.00635
82 1 10.3582 2.01293 10.539
83 1 2.02445 4.18212 8.82358
84 1 12.3346 14.9799 4.29895
85 1 9.77838 4.57277 4.94254
86 1 8.24733 6.17444 14.8396
87 1 2.59951 2.21228 11.4952
88 1 10.1032 14.5507 10.6841
89 1 14.8352 11.3933 0.970623
90 1 9.65367 3.2113 12.7074
91 1 7.57379 3.75387 3.49717
92 1 3.18486 12.7004 2.79973
93 1 13.1688 3.64863 7.87956
94 1 1.26405 7.6779 1.64386
95 1 13.2481 9.81146 12.624
96 1 6.4904 2.82061 8.91061
97 1 6.07375 4.46566 5.52885
98 1 12.7994 2.15223 12.4526
99 1 8.74094 7.19574 5.75913
100 1 2.84289 8.13281 9.9506
101 1 4.26879 12.0826 11.7691
102 1 1.05306 12.2909 12.1273
103 1 6.4908 8.41684 4.61635
104 1 9.22238 9.50586 10.6394
105 1 7.58663 14.4474 8.66324
106 1 1.01896 13.9999 14.1218
107 1 7.05851 3.97468 1.02123
108 1 12.5488 6.50264 11.0148
109 1 6.96281 9.46465 13.6322
110 1 6.78117 6.90631 12.7097
111 1 3.81965 9.64616 5.07592
112 1 1.35904 1.05173 5.64038
113 1 8.7789 12.9533 1.24565
114 1 3.61782 15.0149 6.32163
115 1 10.7798 8.24252 2.54752
116 1 3.88545 14.1549 10.1634
117 1 5.25871 11.3666 1.82295
118 1 3.24915 10.7986 13.9694
119 1 12.179 2.92624 1.6988
120 1 12.3872 13.4754 9.84241
121 1 13.7702 6.67549 13.3953
122 1 10.8091 0.716806 2.41962
123 1 1.80014 1.52327 0.856913
124 1 8.20386 0.749729 6.00386
125 1 12.2992 10.4452 0.177911
126 1 13.3045 4.01024 10.6349
127 1 12.9577 4.05588 4.3988
128 1 4.72507 9.44334 0.188687
129 2 4.61725 4.58226 11.8452
130 2 4.49408 4.92503 13.3009
131 2 14.2719 4.5977 14.439
132 2 -0.0437769 4.19539 13.4225
133 2 7.0923 9.92359 3.98524
134 2 8.21352 10.6751 3.02326
135 2 1.05068 4.25633 4.51904
136 2 2.22947 3.30468 3.45904
137 2 14.5654 9.35558 9.69574
138 2 13.4755 9.56333 10.8872
139 2 10.1971 0.336657 0.450604
140 2 8.82922 0.729416 14.7782
141 2 13.2424 10.0153 7.33615
142 2 13.3119 10.5181 5.91478
143 2 3.6337 13.551 8.78033
144 2 3.38232 13.5852 7.25811
145 2 3.3025 5.23634 2.10397
146 2 3.40189 6.04308 3.41466
147 2 5.31352 8.31837 1.41237
148 2 4.82731 6.85307 2.35256
149 2 13.3183 6.54935 2.83278
150 2 14.7758 6.90055 2.20354
151 2 0.852721 9.00179 14.1777
152 2 0.111968 10.3939 14.7677
153 2 14.2454 4.6788 4.78196
154 2 15.0406 6.1741 4.70954
155 2 10.3369 6.02731 7.46099
156 2 8.99964 6.89054 7.45257
157 2 12.1073 6.72881 5.4146
158 2 11.7145 7.47804 3.99445
159 2 10.0055 2.97021 7.64737
160 2 10.1208 3.3479 6.29628
161 2 3.93055 3.08029 10.862
162 2 5.33973 3.49601 9.94922
163 2 7.5659 9.70675 10.9063
164 2 7.2513 11.4568 11.0469
165 2 7.76538 2.74873 15.0277
166 2 7.17336 1.72187 14.0367
167 2 5.98183 13.2822 14.867
168 2 4.93004 13.3487 0.313876
169 2 14.2082 13.3999 9.86587
170 2 0.0423967 12.9535 11.0429
171 2 11.5415 2.09446 6.34586
172 2 12.4211 0.996464 5.40275
173 2 11.2703 6.19236 12.7016
174 2 11.315 6.66863 14.2489
175 2 1.13776 7.97726 5.8802
176 2 1.70349 8.33734 7.24391
177 2 11.5578 9.10603 5.96751
178 2 10.7676 9.61376 4.77015
179 2 14.1436 8.19675 5.15394
180 2 -0.0150902 8.53343 3.97523
181 2 1.11544 11.8501 5.22484
182 2 2.28798 10.7091 4.97249
183 2 6.28394 1.16432 9.78171
184 2 5.19114 -0.0351555 10.1834
185 2 12.3416 8.90127 0.157426
186 2 12.7897 7.40116 0.79939
187 2 2.40746 7.26425 11.5879
188 2 2.78918 5.80476 12.0673
189 2 2.88426 6.45585 5.68539
190 2 2.88522 4.84366 5.06666
191 2 7.28139 12.8 8.33582
192 2 7.71513 12.2503 6.86531
193 2 2.5472 2.67212 1.46351
194 2 4.09095 2.75909 2.16504
195 2 3.17978 11.9852 14.6899
196 2 3.16336 12.7518 0.895105
197 2 0.120861 5.27672 6.55846
198 2 15.0931 5.82856 7.86234
199 2 10.9689 14.9081 8.208
200 2 11.1788 14.3369 6.66661
201 2 1.81005 13.6703 1.90275
202 2 1.5571 15.0472 1.42378
203 2 5.98913 0.00860667 13.4071
204 2 6.05367 0.681524 11.9276
205 2 1.02392 9.16173 2.49499
206 2 1.07838 10.3122 3.45669
207 2 11.847 13.73 12.6953
208 2 11.6605 12.2883 12.6693
209 2 1.93049 12.4365 8.09799
210 2 0.600621 12.6448 8.81462
211 2 13.5149 14.8534 14.7728
212 2 13.2191 13.478 14.3196
213 2 14.0261 15.0864 4.17411
214 2 0.205554 14.56 3.14971
215 2 8.78232 13.4111 11.32
216 2 9.01464 12.0291 12.2406
217 2 12.3168 6.49566 7.96006
218 2 12.5356 5.05376 7.28488