ITEM: TIMESTEP
0
ITEM: NUMBER OF ATOMS
384
ITEM: BOX BOUNDS pp pp pp
-3.1180958401302572e-01 1.5311809584013066e+01
-3.1180958401302572e-01 1.5311809584013066e+01
-3.1180958401302572e-01 1.5311809584013066e+01
ITEM: ATOMS id type x y z
1 1 4.57679 5.50123 13.6944
2 1 14.8875 3.66367 14.1079
3 1 8.20115 10.8513 3.91518
4 1 1.55859 4.11103 4.68534
5 1 14.0046 11.0534 10.4291
6 1 10.1562 -0.0244194 -0.0179537
7 1 13.1461 9.78511 5.92123
8 1 3.48566 13.6848 7.87681
9 1 3.32305 6.30373 3.20589
10 1 5.30735 8.37688 2.36991
11 1 13.7801 6.32188 1.70807
12 1 0.692367 10.1945 14.1186
13 1 15.0627 5.43363 4.6639
14 1 9.98456 5.97612 7.92121
15 1 12.4056 7.19481 3.96576
16 1 9.83562 2.64919 6.79506
17 1 4.60459 4.17249 11.4106
18 1 7.55062 10.3381 11.1669
19 1 8.27543 1.89543 14.4455
20 1 5.83253 14.0038 0.549654
21 1 -0.277952 13.5963 10.2649
22 1 12.6457 2.09652 6.28487
23 1 10.7129 7.40871 14.2399
24 1 2.2119 7.88472 6.40809
25 1 10.4542 9.69036 5.97773
26 1 -0.282536 8.22967 4.81222
27 1 1.6652 11.2607 4.20606
28 1 6.17365 -0.094545 10.725
29 1 12.1932 8.4542 0.381712
30 1 2.29814 6.67565 12.652
31 1 3.74006 5.65533 5.77839
32 1 7.64075 12.3667 7.75101
33 1 2.57949 3.81144 2.08856
34 1 3.31976 13.3432 0.0677147
35 1 -0.0967938 5.37115 7.46928
36 1 11.1426 14.5448 7.59235
37 1 1.26174 14.8074 2.57217
38 1 6.41618 0.335516 13.3898
39 1 0.207637 9.92258 2.18818
40 1 12.6731 13.1901 12.8323
41 1 1.29363 11.9761 7.9846
42 1 13.2286 14.8362 0.439531
43 1 -0.123887 15.1905 5.01064
44 1 8.80795 12.7708 12.0788
45 1 12.4172 6.75949 6.79319
46 1 9.49869 10.6014 8.40823
47 1 10.544 10.9934 13.3575
48 1 8.99001 12.8372 5.44675
49 1 4.04829 1.51716 14.6149
50 1 6.69928 13.1999 13.7041
51 1 4.43379 6.10378 9.26553
52 1 11.4216 -0.0969869 13.0672
53 1 8.10878 14.4288 3.40524
54 1 4.3962 2.37166 3.28729
55 1 12.1316 11.4523 8.45349
56 1 8.7458 10.8517 -0.213292
57 1 1.53862 1.7361 8.48855
58 1 8.69585 5.89847 11.616
59 1 1.22107 9.19196 8.49846
60 1 10.635 10.5731 3.14594
61 1 11.4957 4.51089 15.2148
62 1 10.9209 6.7156 10.446
63 1 4.94638 10.4223 10.3546
64 1 7.94749 8.55464 1.09697
65 1 14.5919 7.80968 8.4877
66 1 5.26248 14.7619 3.62401
67 1 5.62202 2.26942 6.97039
68 1 1.29568 -0.0251437 10.348
69 1 11.6689 12.7598 1.5126
70 1 8.10674 4.34492 9.29769
71 1 15.2574 12.5827 5.71394
72 1 5.13758 11.4238 7.95676
73 1 0.807368 7.59384 14.5622
74 1 1.07308 4.35508 11.6836
75 1 -0.103901 0.899318 12.6958
76 1 12.4336 12.7126 5.99741
77 1 6.5124 0.898083 1.44852
78 1 5.22926 7.74021 7.34722
79 1 4.69818 3.85809 0.25821
80 1 14.6318 1.53081 0.260033
81 1 8.7843 1.26425 2.88569
82 1 10.1715 2.86217 10.2074
83 1 1.97586 4.56417 8.94346
84 1 12.6683 15.2799 4.82665
85 1 10.1623 4.44247 4.67024
86 1 8.26116 6.29332 15.2182
87 1 2.75694 2.33071 12.3211
88 1 10.1168 15.0402 10.6766
89 1 0.0214213 11.8389 0.424274
90 1 9.92368 3.73613 12.9889
91 1 7.93039 3.8304 3.09944
92 1 3.45334 12.7245 2.72154
93 1 13.7442 3.34545 8.32257
94 1 1.06378 7.50528 1.70711
95 1 13.5608 9.51663 12.896
96 1 6.16563 2.34739 9.6158
97 1 6.00658 4.12469 4.96415
98 1 13.0409 2.11594 12.6389
99 1 9.44842 7.22402 5.61094
100 1 3.08802 8.31472 10.412
101 1 4.27645 12.564 12.0172
102 1 0.247817 12.7339 12.6695
103 1 6.92237 8.32243 4.80264
104 1 10.2096 9.4039 11.0142
105 1 8.10819 14.6608 9.11245
106 1 0.724807 14.5893 14.8093
107 1 7.38606 3.87893 0.612739
108 1 13.59 6.17467 11.3541
109 1 6.57455 9.82429 14.0409
110 1 6.72525 7.05567 13.1783
111 1 3.66994 10.3273 5.96103
112 1 1.66543 1.60839 5.77048
113 1 9.05834 13.0173 1.11863
114 1 4.11235 0.213829 6.02437
115 1 10.3679 8.11545 2.36753
116 1 3.8208 14.5044 10.4834
117 1 6.27696 11.8524 2.07137
118 1 3.1417 11.1769 14.1451
119 1 12.971 3.21476 1.56998
120 1 12.4061 13.5738 10.1924
121 1 14.0948 6.56232 13.8874
122 1 11.4172 0.689063 2.37021
123 1 1.65778 1.52802 1.12949
124 1 7.74882 0.714644 6.86752
125 1 13.0368 10.8806 0.0461404
126 1 14.1536 3.59273 10.8941
127 1 12.9937 3.74289 4.44237
128 1 4.93288 10.2326 0.481908
129 2 4.52916 4.87676 12.9369
130 2 4.69703 5.06241 14.547
131 2 14.6886 4.58995 14.3163
132 2 0.0945933 3.63697 13.6264
133 2 7.74221 10.0755 4.24889
134 2 8.99342 10.7228 3.34745
135 2 0.788771 4.72927 4.53377
136 2 1.81069 3.95163 3.77685
137 2 14.4008 11.9252 10.4575
138 2 13.9069 10.7269 11.3647
139 2 10.6725 0.201823 0.765773
140 2 9.47367 0.652849 -0.0632908
141 2 13.5922 9.97565 6.76473
142 2 13.2152 10.5455 5.32572
143 2 3.67781 14.0964 8.7488
144 2 3.53939 14.3835 7.27865
145 2 3.09567 5.45978 2.78243
146 2 3.60518 6.19337 4.09913
147 2 5.08995 9.05489 1.76222
148 2 4.54185 7.79795 2.5309
149 2 13.4381 6.67871 2.59019
150 2 14.7355 6.25337 1.79471
151 2 0.77524 9.18308 14.2443
152 2 0.388115 10.6288 14.9234
153 2 14.1894 4.91997 4.56536
154 2 14.9228 6.4107 4.60147
155 2 10.8762 5.93786 7.61697
156 2 9.58879 6.53361 7.20672
157 2 12.1014 7.06547 4.8105
158 2 11.5829 7.27566 3.48345
159 2 9.70669 3.06202 7.62541
160 2 9.96186 3.35305 6.0781
161 2 3.89127 3.51534 11.556
162 2 5.31618 3.63484 11.0911
163 2 8.36256 9.80951 10.99
164 2 7.91946 11.2623 11.3115
165 2 7.80256 2.56448 14.9346
166 2 7.58248 1.21916 14.1315
167 2 6.10462 13.5421 -0.242407
168 2 4.85977 13.825 0.528199
169 2 14.4101 13.8153 10.1623
170 2 -0.0704958 13.4422 11.1966
171 2 11.7088 2.1063 6.54679
172 2 12.6961 1.18401 5.89058
173 2 10.9921 7.5299 13.3514
174 2 11.2636 8.01166 14.7268
175 2 1.57728 7.89927 5.7134
176 2 1.87051 8.36741 7.16573
177 2 11.4302 9.71213 6.20698
178 2 10.3486 10.1292 5.1128
179 2 14.4149 8.445 5.04536
180 2 0.00164071 8.8165 4.03796
181 2 1.02838 11.8189 4.67407
182 2 2.36173 10.8675 4.79517
183 2 6.32838 0.734699 10.265
184 2 5.21972 -0.301306 10.6492
185 2 12.568 9.37229 0.310345
186 2 12.8634 7.95827 0.824663
187 2 2.56428 7.41349 12.0109
188 2 3.14156 6.4193 13.0935
189 2 3.16723 6.41343 5.9805
190 2 3.10221 4.98312 5.63197
191 2 7.73547 13.1577 8.33842
192 2 8.06104 12.6116 6.87934
193 2 1.75422 3.38105 1.7562
194 2 3.25148 3.1727 2.47226
195 2 3.15037 12.6412 14.9757
196 2 3.16776 12.9566 0.983888
197 2 0.0720948 5.37286 6.52711
198 2 -0.245356 6.34024 7.61737
199 2 11.6512 14.8569 8.35832
200 2 11.802 13.9131 7.23812
201 2 2.07792 14.3411 2.56175
202 2 1.50629 0.044002 2.08403
203 2 6.3968 14.9261 13.4491
204 2 6.20534 0.425411 12.4267
205 2 0.660795 9.1318 1.85703
206 2 0.694078 10.391 2.87312
207 2 12.3708 14.0972 13.0916
208 2 12.1841 12.5232 13.366
209 2 2.09163 12.5603 7.87369
210 2 0.901668 12.2269 8.80367
211 2 13.6981 0.109016 0.335681
212 2 13.4443 14.3386 15.279
213 2 14.5376 15.2076 4.93591
214 2 0.228484 14.9795 4.13145
215 2 9.24837 13.4527 11.622
216 2 9.52013 12.2417 12.5392
217 2 12.875 7.30125 7.44426
218 2 13.1287 6.09272 6.70831
219 2 8.70364 11.2231 8.31889
220 2 9.67729 10.2938 7.51515
221 2 10.4955 10.2933 12.7118
222 2 10.0325 10.7711 14.1408
223 2 9.87115 13.0955 5.5737
224 2 8.95145 12.0108 4.93614
225 2 4.74251 0.928236 14.2575
226 2 3.48888 1.81195 13.8977
227 2 7.56401 13.1017 13.1985
228 2 6.02622 12.6782 13.2435
229 2 3.65548 5.64787 8.88705
230 2 4.53028 5.65688 10.1121
231 2 10.7483 -0.0654962 13.7661
232 2 11.7812 0.808853 13.0779
233 2 8.36482 -0.291862 3.46612
234 2 8.34757 14.0066 4.25098
235 2 5.1094 1.81781 2.95108
236 2 4.6411 2.96006 4.03817
237 2 12.5339 11.0417 9.22128
238 2 11.1841 11.2095 8.49369
239 2 8.60742 10.312 0.576946
240 2 8.69537 11.7883 0.0583599
241 2 1.42282 1.68337 7.50469
242 2 1.60998 2.65673 8.73322
243 2 8.87953 5.11923 12.1645
244 2 8.03029 6.40716 12.1505
245 2 1.95332 8.95172 9.16853
246 2 1.28006 10.1574 8.3047
247 2 11.2632 11.2403 2.79611
248 2 10.7957 9.70539 2.72449
249 2 11.5653 5.40273 -0.288322
250 2 11.1896 4.32648 14.2564
251 2 10.4204 6.65681 9.62663
252 2 10.2607 6.46258 11.0571
253 2 5.87632 10.1769 10.5904
254 2 4.94364 10.8143 9.46912
255 2 7.91802 7.6928 0.604333
256 2 7.17835 8.74025 1.63464
257 2 14.2008 7.92642 9.35992
258 2 -0.267797 8.44072 8.55252
259 2 6.16366 14.3915 3.8125
260 2 4.75946 14.0077 3.26281
261 2 6.35085 1.60272 6.90857
262 2 4.84301 1.75402 6.76165
263 2 1.34137 0.662419 9.62968
264 2 0.817817 14.7755 10.0578
265 2 10.8342 13.0339 1.10914
266 2 12.2496 13.5788 1.43103
267 2 7.99168 4.93257 10.0429
268 2 8.59208 4.87508 8.55834
269 2 -0.0863874 13.5026 5.64494
270 2 0.00602987 12.1735 6.56287
271 2 6.0476 11.6847 7.84187
272 2 4.65027 12.2574 7.8746
273 2 -0.10786 7.21382 14.4417
274 2 1.40859 7.20909 13.8607
275 2 1.10879 5.19843 12.1297
276 2 0.142322 4.18446 11.4107
277 2 0.192301 0.569522 11.8253
278 2 0.262058 0.216297 13.3227
279 2 13.325 12.966 5.76917
280 2 12.474 12.1815 6.79075
281 2 6.96454 1.33987 0.72514
282 2 6.22808 -0.0168944 1.14781
283 2 5.28424 6.95392 7.95734
284 2 5.69738 8.44349 7.79401
285 2 4.59695 2.96295 -0.156096
286 2 4.05776 3.8329 1.0606
287 2 14.2623 2.20361 0.861912
288 2 14.7961 2.02476 15.1013
289 2 7.90736 0.984376 2.41964
290 2 8.42535 2.08554 3.23522
291 2 9.33834 3.30929 9.83257
292 2 10.1754 1.88055 10.1119
293 2 1.75381 4.52695 9.90946
294 2 1.11552 4.78978 8.54253
295 2 12.2645 0.0873025 4.07993
296 2 12.0334 14.6435 5.15054
297 2 9.97133 5.30379 5.02216
298 2 9.51596 4.30903 3.95105
299 2 9.11176 6.41377 14.7882
300 2 7.57568 6.54 14.599
301 2 2.07189 2.92609 11.9449
302 2 2.69894 1.52435 11.845
303 2 10.8501 14.3815 10.4642
304 2 10.5118 -0.206863 11.478
305 2 0.274248 12.7719 0.61942
306 2 0.108425 11.2293 1.22179
307 2 9.70727 2.84376 13.3266
308 2 10.3129 3.49932 12.1129
309 2 7.16744 3.93944 3.6373
310 2 7.68964 3.77425 2.12389
311 2 2.7812 12.2345 3.34142
312 2 4.17512 12.108 2.65722
313 2 13.4252 2.63657 7.76521
314 2 14.4885 3.85196 7.85505
315 2 1.16553 7.50623 0.684607
316 2 1.80702 6.9489 2.01705
317 2 14.4305 9.58843 13.243
318 2 13.0187 10.0336 13.4694
319 2 5.70123 2.57075 8.68482
320 2 6.80813 3.05178 9.52933
321 2 5.35787 4.80808 5.12533
322 2 5.96938 3.53575 5.71789
323 2 13.0854 2.74416 13.3668
324 2 13.871 1.59988 12.7008
325 2 8.54415 7.16809 5.28465
326 2 9.76316 8.11779 5.62097
327 2 3.5805 7.58031 10.0651
328 2 3.76188 9.05652 10.3377
329 2 4.55808 11.8882 11.3243
330 2 3.56374 12.075 12.5347
331 2 0.334551 11.7965 12.6005
332 2 0.24849 12.8839 13.5924
333 2 6.35726 8.22802 5.65351
334 2 6.38531 8.12785 4.02112
335 2 10.214 9.5859 10.0692
336 2 10.6644 8.57403 11.1276
337 2 8.95214 14.8857 9.64428
338 2 7.3584 14.7538 9.70982
339 2 0.591563 15.0693 0.0182509
340 2 1.70203 14.3696 14.7724
341 2 6.4741 3.89198 0.306924
342 2 7.8908 4.74294 0.474307
343 2 13.7745 5.25403 11.174
344 2 12.6407 6.3597 11.1641
345 2 6.61181 10.3071 13.1711
346 2 7.38294 10.2018 14.4287
347 2 5.92965 6.53312 13.3142
348 2 6.65131 8.00804 13.4902
349 2 4.1508 10.9057 6.58172
350 2 3.72612 9.43762 6.27968
351 2 0.960879 1.05271 5.33877
352 2 1.48012 2.49213 5.40543
353 2 8.71011 13.4532 1.93204
354 2 8.99593 13.78 0.520382
355 2 3.28533 0.709593 5.89467
356 2 4.52263 -0.105961 5.1872
357 2 10.8957 8.12501 1.5533
358 2 9.392 8.09909 2.00114
359 2 2.85608 14.8006 10.6062
360 2 3.90293 13.7417 11.0449
361 2 6.48734 12.6937 1.54518
362 2 7.04029 11.6822 2.67807
363 2 2.24681 10.7375 14.3261
364 2 3.668 10.6767 14.8241
365 2 12.3482 3.69431 0.972113
366 2 13.2921 3.83378 2.19605
367 2 12.5073 12.8061 9.60602
368 2 12.5354 13.311 11.1419
369 2 13.9506 6.55755 12.8999
370 2 13.4462 7.1125 14.3857
371 2 11.8334 1.45816 2.05064
372 2 10.4376 0.894116 2.52875
373 2 0.844146 1.54638 0.605455
374 2 2.39804 1.38307 0.478242
375 2 7.77884 0.12269 7.66547
376 2 8.60235 1.23456 6.91956
377 2 12.4122 11.5105 0.551261
378 2 13.9301 11.2794 0.187093
379 2 13.8259 3.47873 9.96028
380 2 13.5184 3.1733 11.5056
381 2 12.9666 3.11167 5.2382
382 2 12.0906 4.05916 4.29522
383 2 5.48443 10.7696 1.07083
384 2 5.47524 10.05 -0.286949
ITEM: TIMESTEP
200
ITEM: NUMBER OF ATOMS
384
ITEM: BOX BOUNDS pp pp pp
-2.2989006347002316e-01 1.5229890063470055e+01
-2.0075667969305755e-01 1.5200756679693095e+01
-2.0224793522469486e-01 1.5202247935224751e+01
ITEM: ATOMS id type x y z
1 1 4.55062 5.59117 13.1344
2 1 14.4928 3.86568 14.041
3 1 7.69903 10.6137 3.72601
4 1 1.66776 3.8608 4.62138
5 1 13.7125 10.013 10.2775
6 1 9.9171 0.189617 -0.11691
7 1 13.3724 9.63239 6.10899
8 1 3.49835 13.322 7.67414
9 1 3.23126 6.44541 2.80576
10 1 5.37177 8.01331 2.42761
11 1 13.8469 6.49162 1.84805
12 1 0.490211 10.1365 13.6097
13 1 14.901 5.33576 4.81189
14 1 9.87311 5.99265 7.78549
15 1 12.2015 7.02638 3.98352
16 1 9.94108 2.88675 6.85554
17 1 4.66244 3.93424 11.2652
18 1 7.3835 10.4285 11.191
19 1 8.29796 1.97222 14.3956
20 1 5.79251 13.7319 0.492967
21 1 -0.180513 13.2475 9.84208
22 1 12.491 1.94847 6.05368
23 1 10.729 7.0081 14.0456
24 1 1.98565 7.76909 6.18783
25 1 10.6025 9.23179 5.73762
26 1 15.1875 8.12081 4.60679
27 1 1.74588 11.3299 4.39269
28 1 6.03108 0.375043 10.6418
29 1 12.2268 8.00431 0.258753
30 1 2.16318 6.53877 12.3339
31 1 3.63974 5.58517 5.30469
32 1 7.72209 11.9552 7.86322
33 1 2.85891 3.64316 2.09452
34 1 2.97873 13.326 0.157546
35 1 -0.20185 5.40252 7.5597
36 1 10.7725 14.6518 7.45327
37 1 1.30898 14.543 2.57868
38 1 6.00831 0.470502 13.3914
39 1 0.529629 9.95177 2.62545
40 1 12.2867 13.0226 12.5801
41 1 0.993572 12.1386 8.01384
42 1 13.794 14.1547 0.224417
43 1 -0.114998 15.0514 4.61184
44 1 8.56444 12.7262 11.7441
45 1 12.4302 6.26264 6.72556
46 1 9.77572 10.2856 8.17619
47 1 10.5037 10.939 12.8712
48 1 8.87236 12.3845 5.23112
49 1 3.77363 1.62333 14.3329
50 1 6.45262 13.239 13.4575
51 1 4.01761 5.98257 9.1124
52 1 11.2407 -0.0429258 12.9222
53 1 7.55285 14.1387 3.48607
54 1 4.55692 2.135 3.39253
55 1 12.2275 11.2529 8.46479
56 1 8.76368 10.2731 -0.189199
57 1 1.69 1.81344 8.4329
58 1 8.49558 5.60528 11.6386
59 1 1.1906 9.09724 8.38157
60 1 10.4839 10.5137 3.26342
61 1 11.6144 4.29594 14.7999
62 1 10.6592 6.86112 10.5724
63 1 4.93405 10.0988 9.94709
64 1 7.98188 8.05167 1.31878
65 1 14.2637 7.74563 8.48056
66 1 4.96613 14.7308 3.67923
67 1 5.68537 1.86465 6.78845
68 1 1.47263 0.360923 10.4804
69 1 11.436 12.4219 1.52866
70 1 8.158 4.25826 9.34968
71 1 15.2038 12.5825 5.65634
72 1 5.02413 11.2506 7.59983
73 1 0.873981 7.4598 14.3492
74 1 1.09373 4.25753 11.8757
75 1 -0.128634 0.727061 12.817
76 1 12.4926 12.3541 6.17225
77 1 6.42147 1.00482 1.31869
78 1 5.56067 8.09071 7.17031
79 1 4.51646 3.98631 -0.171814
80 1 14.7275 1.68065 0.190739
81 1 8.63583 1.21867 2.79794
82 1 10.0865 2.62499 10.3078
83 1 1.76336 4.31181 8.76995
84 1 12.6796 15.0645 4.15275
85 1 10.1507 4.76981 4.90737
86 1 8.40065 6.22326 14.9944
87 1 2.73521 2.33695 12.1465
88 1 9.98949 14.6651 10.7708
89 1 -0.202102 11.3002 0.542745
90 1 9.66192 3.54814 12.7213
91 1 8.06683 3.85029 3.59631
92 1 3.23133 12.5985 2.73341
93 1 13.4913 3.51811 8.08866
94 1 0.819639 7.52715 1.74181
95 1 13.3533 9.79587 12.728
96 1 6.12376 2.7326 9.22447
97 1 5.75288 3.8228 5.02411
98 1 13.0077 1.90832 12.729
99 1 8.99895 7.1229 5.45846
100 1 2.95977 8.22938 10.2396
101 1 4.57904 12.0655 12.079
102 1 0.461009 12.6021 12.3074
103 1 6.79118 8.43275 4.74214
104 1 9.86303 9.54583 10.8229
105 1 7.88562 14.6087 9.03021
106 1 0.6894 14.349 14.5107
107 1 7.41298 3.94332 0.716628
108 1 13.4183 6.69431 10.9738
109 1 6.76053 9.48439 13.6525
110 1 6.88057 6.87672 13.1293
111 1 3.56428 9.98957 5.7028
112 1 1.60736 1.22146 5.75006
113 1 9.0028 13.138 0.97549
114 1 3.81618 0.0208297 6.13603
115 1 10.4954 8.16446 2.24434
116 1 3.90879 14.1693 10.3689
117 1 5.65022 11.6447 2.20333
118 1 3.11588 11.0852 14.0592
119 1 12.4581 2.97613 1.61576
120 1 12.5628 13.4555 10.0394
121 1 13.7464 6.41817 13.7629
122 1 11.3256 0.783017 2.15149
123 1 1.75469 1.22371 1.09534
124 1 8.05713 0.744285 6.67669
125 1 12.6606 10.5354 15.1974
126 1 13.9659 3.86837 10.7289
127 1 12.6445 4.00526 4.09563
128 1 4.92866 9.6566 0.256105
129 2 4.77964 5.1035 12.2318
130 2 4.45115 5.15193 14.0637
131 2 14.1718 4.7652 14.011
132 2 15.1619 3.80785 13.4249
133 2 7.18811 9.75073 4.10288
134 2 8.6237 10.5401 3.577
135 2 0.869923 4.45393 4.50566
136 2 1.92013 3.839 3.60216
137 2 14.4706 10.5707 10.2676
138 2 13.3769 9.80829 11.2425
139 2 10.3799 0.379195 0.797214
140 2 9.13324 0.892223 15.016
141 2 13.4429 9.24895 7.00623
142 2 13.0385 10.5713 6.08637
143 2 3.6048 13.8817 8.55727
144 2 3.67532 13.9838 7.13339
145 2 3.17132 5.61787 1.99025
146 2 3.25658 5.8655 3.73996
147 2 5.07916 8.60249 1.69314
148 2 4.59111 7.40354 2.51732
149 2 13.303 6.36729 2.77066
150 2 14.7571 7.1176 1.93361
151 2 0.676631 9.14922 13.6458
152 2 0.558518 10.5151 14.5281
153 2 14.1465 4.75149 4.46647
154 2 14.8826 6.32385 4.56932
155 2 10.7395 6.10275 7.32254
156 2 9.35188 6.61439 7.20337
157 2 12.2473 6.95198 5.04824
158 2 11.4266 7.64269 3.61604
159 2 9.95954 3.08027 7.86815
160 2 10.0522 3.70426 6.31723
161 2 4.09456 3.13444 11.5119
162 2 5.14341 3.53579 10.5191
163 2 8.15204 9.91804 11.045
164 2 7.67077 11.4081 11.2542
165 2 8.23381 2.66413 15.0405
166 2 7.38452 1.85384 13.8752
167 2 6.3746 13.4934 15.1286
168 2 4.86385 13.9099 0.295051
169 2 14.4525 13.3498 9.76601
170 2 0.127015 12.9961 10.8833
171 2 11.6143 1.94051 6.25055
172 2 12.748 1.14479 5.52258
173 2 10.8447 7.09941 13.0095
174 2 11.3941 7.3802 14.5884
175 2 1.25361 7.83808 5.5866
176 2 1.59927 8.12935 7.07722
177 2 11.5617 8.919 5.89348
178 2 10.5186 9.82316 4.83717
179 2 14.5747 8.74067 5.01863
180 2 0.0176471 8.71811 3.82081
181 2 1.32753 11.8359 4.97663
182 2 2.44842 10.8416 4.73439
183 2 6.02427 1.15927 10.0411
184 2 5.2752 -0.186393 10.5679
185 2 12.7019 8.86953 0.00333893
186 2 13.1524 7.25036 0.743786
187 2 2.43322 7.2103 11.6376
188 2 3.06605 6.50114 12.7124
189 2 3.21599 6.34156 5.71875
190 2 2.89985 4.96549 5.22515
191 2 7.82014 12.8478 8.10217
192 2 8.08405 12.2642 7.05845
193 2 2.44742 2.96243 1.76298
194 2 3.52712 3.25517 2.79958
195 2 2.8345 12.4436 15.0814
196 2 3.00599 13.1905 1.26796
197 2 -0.215791 5.34567 6.55037
198 2 15.0929 6.38175 8.06265
199 2 11.5766 15.1618 7.67864
200 2 11.4127 13.9975 7.06601
201 2 2.31778 13.9992 2.75045
202 2 1.52597 -0.0962568 1.92192
203 2 6.07582 14.8795 13.4775
204 2 6.00556 0.601782 12.2463
205 2 1.22141 9.34604 2.40824
206 2 1.1371 10.5221 3.21128
207 2 11.7658 13.8375 12.5656
208 2 11.6947 12.2624 12.7148
209 2 1.91967 12.7044 8.18391
210 2 0.579315 12.6474 8.71604
211 2 13.7899 15.1561 0.277005
212 2 13.4821 13.9244 14.802
213 2 14.466 15.1815 3.99542
214 2 0.559181 15.0112 3.91139
215 2 8.87815 13.6182 11.2346
216 2 9.21898 12.343 12.1795
217 2 13.0751 6.59286 7.33785
218 2 12.9423 5.53386 6.81767
219 2 8.91025 10.9084 8.24686
220 2 9.95978 9.95008 7.27086
221 2 10.375 10.287 12.1952
222 2 10.2131 10.7921 13.7336
223 2 9.65341 12.2312 4.94682
224 2 8.2261 11.6391 4.92044
225 2 4.79302 1.21583 14.1427
226 2 3.24572 1.79568 13.5256
227 2 7.30735 13.0411 13.0168
228 2 5.75623 12.472 13.2055
229 2 3.2341 5.49131 8.91467
230 2 4.41645 5.37925 9.90911
231 2 10.9527 0.173978 13.7716
232 2 11.8914 0.876482 12.8424
233 2 7.81845 15.1238 3.63504
234 2 8.24415 13.529 4.11728
235 2 5.06599 1.3079 2.92172
236 2 5.07349 2.56644 4.11839
237 2 12.4469 10.6114 9.26099
238 2 11.3379 10.6632 8.12448
239 2 8.40309 9.44929 0.613152
240 2 8.64659 11.1064 0.351885
241 2 1.55095 1.39851 7.46612
242 2 1.82175 2.69461 8.55568
243 2 9.10095 4.87377 12.1378
244 2 7.8567 6.19526 12.2592
245 2 1.92226 8.93323 8.98612
246 2 1.42663 9.97924 8.2533
247 2 10.8403 11.2795 2.89128
248 2 10.5181 9.72771 2.77481
249 2 11.1579 5.21362 15.035
250 2 11.0195 3.88883 14.1158
251 2 10.7432 6.34223 9.72563
252 2 9.66078 6.48141 10.9743
253 2 5.76463 10.1458 10.3025
254 2 4.8278 10.7402 9.29055
255 2 7.90608 7.1413 0.625151
256 2 7.0704 7.82464 1.83205
257 2 14.0742 7.4 9.39246
258 2 15.0442 8.45563 8.79978
259 2 5.98526 14.5168 3.91223
260 2 4.57965 13.8518 3.42692
261 2 6.59824 1.41453 6.74631
262 2 5.09517 1.13664 6.71869
263 2 1.3719 0.916403 9.71667
264 2 0.79772 15.0893 10.4324
265 2 10.4953 12.8543 1.23258
266 2 12.0955 13.0838 1.62833
267 2 8.11781 4.62886 10.3198
268 2 8.62146 4.77274 8.62014
269 2 -0.112234 13.3845 5.1544
270 2 0.154133 12.4462 6.53857
271 2 6.00057 11.483 7.45779
272 2 4.51699 12.1432 7.54282
273 2 -0.114453 7.22261 14.5303
274 2 1.11357 7.0481 13.5868
275 2 1.38115 5.28056 11.7958
276 2 0.222838 4.29515 11.3697
277 2 0.456736 0.787286 12.0396
278 2 0.355377 0.354705 13.5495
279 2 13.3845 12.4296 5.91971
280 2 12.4835 12.2151 7.19992
281 2 6.18665 1.41367 0.425264
282 2 6.11465 0.0225637 1.25109
283 2 5.53557 7.36938 7.65533
284 2 5.35186 8.85437 7.77514
285 2 4.56581 2.96421 14.8933
286 2 4.03506 3.90891 0.711902
287 2 13.9951 2.14445 0.743385
288 2 14.7624 2.54986 14.9186
289 2 7.95091 1.30462 2.06536
290 2 8.43949 1.97322 3.49422
291 2 9.5221 3.24726 9.74279
292 2 10.4137 1.67212 9.9523
293 2 1.35468 4.30132 9.83581
294 2 1.17163 4.92266 8.39936
295 2 12.0221 0.0121162 3.2319
296 2 12.4277 14.2464 4.5602
297 2 9.93662 5.7929 5.08393
298 2 9.60762 4.32098 4.16659
299 2 9.29472 6.52633 14.7394
300 2 7.68937 6.32833 14.2903
301 2 2.16986 3.04447 12.1117
302 2 2.56698 1.57714 11.4626
303 2 10.5996 14.3857 10.2126
304 2 10.5637 -0.161342 11.6564
305 2 15.1357 12.239 0.848734
306 2 0.213279 10.8394 1.31336
307 2 9.10754 2.82574 13.3377
308 2 10.2079 3.05327 12.2145
309 2 6.98138 4.05999 4.1361
310 2 7.81998 3.9691 2.73656
311 2 2.59918 12.0558 3.21811
312 2 4.08313 11.9537 2.80066
313 2 13.1567 2.63879 7.55479
314 2 14.374 3.79142 7.7795
315 2 0.806099 7.49232 0.783242
316 2 1.74629 7.11645 2.14686
317 2 14.3193 10.0508 12.9887
318 2 12.7772 10.2232 13.4801
319 2 5.89156 2.56022 8.28743
320 2 6.99128 3.19214 9.04852
321 2 5.02087 4.5208 4.9617
322 2 5.68043 3.15773 5.86906
323 2 13.0486 2.54194 13.5055
324 2 13.9779 1.56927 12.898
325 2 8.17593 7.39158 4.86971
326 2 9.59949 7.90539 5.66784
327 2 3.51457 7.46622 9.65014
328 2 3.73832 8.8589 10.4283
329 2 4.59792 11.4261 11.3112
330 2 3.91605 11.7597 12.8815
331 2 0.241656 11.7619 12.6652
332 2 0.309047 13.2209 13.063
333 2 6.32814 8.38314 5.64644
334 2 6.17804 8.25709 3.95333
335 2 9.74681 10.0405 10.1022
336 2 10.0668 8.54895 10.7303
337 2 8.70819 14.8499 9.49988
338 2 7.15397 14.6586 9.67895
339 2 -0.118168 14.3995 -0.201538
340 2 1.58462 13.9689 14.8852
341 2 6.37002 4.0192 0.407748
342 2 7.73083 4.74628 0.563437
343 2 13.5464 5.68222 10.6912
344 2 12.4395 7.06989 11.0167
345 2 6.77016 10.0786 12.6832
346 2 7.64711 9.63249 14.0764
347 2 5.98452 6.41438 13.1399
348 2 6.75798 8.00246 13.312
349 2 3.83022 10.4457 6.55084
350 2 3.10136 9.17099 5.8426
351 2 0.90845 0.45448 5.53997
352 2 1.52882 1.84834 5.08369
353 2 8.64663 13.1443 1.79015
354 2 9.332 14.1056 0.690485
355 2 3.07668 0.606324 5.85797
356 2 4.27767 15.0574 5.19544
357 2 11.074 7.99411 1.48673
358 2 9.53444 8.05407 2.0307
359 2 3.0362 14.7614 10.4921
360 2 3.89818 13.4262 11.0287
361 2 5.82086 12.6154 1.91212
362 2 6.29667 11.4054 2.78181
363 2 2.25346 10.5422 13.7892
364 2 3.8284 10.4664 14.629
365 2 11.9832 3.5266 0.915427
366 2 12.6168 3.34118 2.36021
367 2 12.2524 12.674 9.38023
368 2 12.5221 13.3076 11.015
369 2 13.721 6.54642 12.7778
370 2 13.0348 6.7043 14.1625
371 2 11.8675 1.61849 1.92244
372 2 10.4682 0.837133 2.35871
373 2 0.791454 1.60101 0.850618
374 2 2.24708 1.05455 0.248967
375 2 8.08265 0.338177 7.43914
376 2 8.90515 1.48167 6.58998
377 2 12.225 11.27 0.349186
378 2 13.6931 10.9458 -0.0290815
379 2 13.9493 3.75337 9.83126
380 2 13.4276 3.1315 11.1403
381 2 12.7296 3.08051 4.68187
382 2 11.7615 4.58329 4.18322
383 2 5.45877 10.3801 0.62228
384 2 5.3054 9.29213 14.8716
ITEM: TIMESTEP
400
ITEM: NUMBER OF ATOMS
384
ITEM: BOX BOUNDS pp pp pp
-1.7792508045011868e-01 1.5177925080450148e+01
-7.2874872329593998e-02 1.5072874872329617e+01
-1.0143935956222627e-01 1.5101439359562306e+01
ITEM: ATOMS id type x y z
1 1 4.41376 5.48 12.6501
2 1 14.8505 3.53939 14.0671
3 1 7.26258 10.4685 3.5878
4 1 1.7092 3.46898 4.31076
5 1 13.6955 9.74992 10.0735
6 1 9.41558 -0.0406164 14.9227
7 1 13.3813 9.27299 6.46868
8 1 3.50646 13.0453 7.94204
9 1 3.4448 6.05415 2.46714
10 1 5.5693 7.49523 2.03167
11 1 14.0943 6.83225 2.0514
12 1 0.612897 10.0804 13.6751
13 1 -0.0969513 5.2598 4.71293
14 1 9.58482 6.37663 8.17544
15 1 12.2774 6.62783 4.35018
16 1 10.2801 2.86352 6.81972
17 1 4.54449 3.95827 10.7023
18 1 7.05537 10.4216 11.009
19 1 7.9567 1.99864 14.3668
20 1 5.78891 13.3457 0.586627
21 1 -0.0311535 13.2148 9.7631
22 1 12.0709 2.01591 5.26278
23 1 10.7705 6.47445 13.4744
24 1 1.94839 7.79945 6.24874
25 1 10.6364 9.07991 5.74737
26 1 14.9976 7.98873 4.78163
27 1 1.65226 11.1897 4.36724
28 1 5.89032 0.588987 10.5269
29 1 12.1677 7.71886 0.292279
30 1 2.06637 6.6391 12.0404
31 1 3.36708 5.59089 5.20266
32 1 7.63461 12.0299 7.79187
33 1 3.31315 3.45603 1.73904
34 1 3.16264 13.0107 0.218532
35 1 -0.0913532 4.9465 7.28601
36 1 10.7863 14.54 7.42603
37 1 1.15463 14.3684 2.02763
38 1 6.0088 0.790414 13.1935
39 1 0.36514 9.70284 2.66004
40 1 12.2902 13.0823 12.754
41 1 1.24908 11.8751 8.11692
42 1 13.3316 13.6934 0.0490992
43 1 15.1283 14.8781 4.27847
44 1 8.77345 12.8043 11.8805
45 1 11.9988 5.97613 7.14977
46 1 9.84673 10.2464 7.97786
47 1 10.3949 10.7955 12.6742
48 1 8.50624 12.1332 5.38634
49 1 3.74467 1.68689 14.2052
50 1 6.38889 13.2596 13.1736
51 1 4.06389 6.02252 8.51496
52 1 11.2156 0.26642 12.511
53 1 7.4011 13.8266 3.55913
54 1 4.61075 1.98674 3.43623
55 1 12.1411 11.3187 8.67047
56 1 9.03303 10.1924 -0.0345094
57 1 2.23213 1.53176 8.26797
58 1 8.69828 5.25866 11.6503
59 1 0.963964 9.20383 8.52116
60 1 10.0507 10.4008 3.52715
61 1 11.8377 3.94528 14.0782
62 1 10.271 6.89316 10.5198
63 1 4.77704 9.88289 9.59883
64 1 8.31557 7.8867 1.54251
65 1 14.3798 7.57268 8.00796
66 1 4.80512 14.5258 3.55876
67 1 5.75423 1.65442 6.57138
68 1 1.6646 0.219094 10.3735
69 1 11.4297 12.4818 1.69874
70 1 8.40835 3.96339 9.17925
71 1 15.174 12.4653 5.73268
72 1 5.24097 11.0663 7.29684
73 1 0.70277 7.52202 14.2478
74 1 0.57113 4.27177 11.6076
75 1 -0.0230125 1.10023 12.4526
76 1 12.4188 12.39 6.05717
77 1 6.31614 0.77915 1.3895
78 1 5.83857 7.9533 7.39041
79 1 4.89298 4.10234 14.9382
80 1 14.4496 1.21422 0.436522
81 1 8.35653 1.02811 2.81952
82 1 10.1633 2.16328 10.4002
83 1 1.82657 4.20642 8.89322
84 1 12.352 14.8513 3.92963
85 1 9.90981 4.68976 5.02447
86 1 8.19183 5.82288 14.953
87 1 2.60791 2.29248 11.5306
88 1 10.1728 14.585 10.3295
89 1 14.8001 11.2387 0.729986
90 1 9.69177 3.11206 12.7719
91 1 7.70419 3.49578 3.66301
92 1 3.38078 12.4581 2.93007
93 1 13.0987 3.62427 7.7043
94 1 1.36665 7.6503 1.58092
95 1 13.326 9.4767 12.6779
96 1 6.17761 2.81243 8.92189
97 1 5.83128 3.98579 5.27896
98 1 12.764 2.3119 12.3284
99 1 8.72081 7.0986 5.84755
100 1 2.87256 7.99208 9.87463
101 1 4.36312 11.7548 11.7788
102 1 1.15732 12.1656 11.7565
103 1 6.39681 8.32652 4.72775
104 1 9.30677 9.3857 10.5998
105 1 7.91265 14.5389 8.71475
106 1 0.916495 14.004 14.1564
107 1 7.04468 3.88821 1.21463
108 1 12.9209 6.65799 10.5873
109 1 6.92185 9.40854 13.5081
110 1 6.83581 6.74572 12.9137
111 1 3.69438 9.66666 5.2786
112 1 1.44875 1.12743 5.71093
113 1 8.72342 12.8017 1.10939
114 1 3.62166 14.8605 6.14341
115 1 10.7446 8.04747 2.62178
116 1 3.88289 14.0561 10.2664
117 1 5.48461 11.1511 1.93513
118 1 3.19397 10.879 14.0282
119 1 12.3946 2.81076 1.31536
120 1 12.6533 13.4671 10.1147
121 1 13.8472 6.62228 13.3505
122 1 10.8983 0.725647 2.17047
123 1 1.82322 1.52146 0.903948
124 1 8.30736 0.907134 6.17297
125 1 12.3299 10.275 0.0255317
126 1 13.4324 4.13141 10.682
127 1 13.0916 4.21352 3.91684
128 1 4.68113 9.34453 0.0839344
129 2 4.43229 4.70562 11.9632
130 2 4.67254 5.02053 13.4312
131 2 14.5925 4.15311 14.7283
132 2 0.0423888 4.04237 13.4494
133 2 6.95703 9.62199 4.12966
134 2 8.24299 10.375 3.25105
135 2 1.08905 4.13702 4.50081
136 2 2.126 3.17513 3.3424
137 2 14.6646 9.7597 9.95525
138 2 13.6267 9.9185 11.0356
139 2 10.125 0.264711 0.472771
140 2 8.75918 0.706519 14.7379
141 2 13.6728 8.77898 7.28778
142 2 13.4754 10.1571 6.5748
143 2 3.57979 13.6322 8.74197
144 2 3.36403 13.5872 7.22436
145 2 3.28229 5.2272 1.96894
146 2 3.46821 5.82849 3.42633
147 2 5.39049 8.17571 1.14385
148 2 4.88995 6.85282 2.38146
149 2 13.6324 6.97321 2.89081
150 2 15.0518 7.04691 2.08724
151 2 0.755668 8.98327 14.0993
152 2 0.114933 10.4412 14.4679
153 2 14.4207 4.79709 4.5774
154 2 -0.140807 6.23418 4.63177
155 2 10.4075 6.10893 7.54283
156 2 8.97094 6.85092 7.50456
157 2 11.9481 6.5307 5.27542
158 2 11.6641 7.14044 3.70676
159 2 10.5021 3.39905 7.62744
160 2 10.1782 3.53051 6.27375
161 2 3.83856 3.17303 10.7978
162 2 5.24896 3.59969 10.0046
163 2 7.78131 9.6565 10.8917
164 2 7.3976 11.3672 10.9215
165 2 7.77133 2.59835 -0.0766389
166 2 7.17699 1.54889 14.0559
167 2 6.11158 13.1057 14.9046
168 2 4.96337 13.0121 0.391338
169 2 14.3943 13.3887 9.74664
170 2 0.194411 12.8103 10.758
171 2 11.398 2.22225 6.01517
172 2 12.1901 0.989979 5.12463
173 2 10.969 6.33982 12.5819
174 2 11.3428 6.93167 14.0727
175 2 0.964174 7.81718 5.777
176 2 1.67576 8.19812 7.05783
177 2 11.5188 9.28623 5.8845
178 2 10.5968 9.58578 4.81502
179 2 14.2826 8.38848 5.39148
180 2 -0.091885 8.62486 3.98956
181 2 1.1275 11.8093 5.11584
182 2 2.30098 10.6976 4.99412
183 2 6.12307 1.17188 9.83451
184 2 5.16318 15.0445 10.4148
185 2 12.1805 8.74772 0.313751
186 2 12.753 7.31215 0.857741
187 2 2.37779 7.42468 11.5013
188 2 2.76722 6.04865 12.1665
189 2 2.88895 6.40187 5.45226
190 2 2.93213 4.75066 5.07328
191 2 7.54418 12.9651 8.23165
192 2 7.81497 12.1729 6.87724
193 2 2.54153 2.76009 1.40316
194 2 4.10385 2.89813 2.21555
195 2 3.10074 12.0987 14.7297
196 2 2.99065 12.7761 1.06731
197 2 0.191633 5.16512 6.42618
198 2 15.1083 5.9354 7.56704
199 2 11.2581 15.0291 8.16322
200 2 11.3337 14.4555 6.5905
201 2 2.01246 13.9332 2.12206
202 2 1.6332 0.0569646 1.6771
203 2 6.21574 14.9921 13.3903
204 2 6.03841 0.592055 12.0525
205 2 1.05888 9.08257 2.51368
206 2 1.06058 10.1979 3.42431
207 2 11.9235 13.9592 12.62
208 2 11.4731 12.5094 12.6785
209 2 1.97793 12.4066 8.06069
210 2 0.693347 12.4251 8.81417
211 2 13.6615 14.5649 15.0997
212 2 12.76 13.5996 14.3346
213 2 14.0346 15.0207 4.32173
214 2 0.198882 14.5229 3.38671
215 2 9.0443 13.3633 11.1828
216 2 9.43795 11.9941 12.1654
217 2 12.3991 6.43234 8.11193
218 2 12.4275 4.95049 7.30554