ITEM: TIMESTEP
0
ITEM: NUMBER OF ATOMS
384
ITEM: BOX BOUNDS pp pp pp
0.0000000000000000e+00 1.5645677530000000e+01
0.0000000000000000e+00 1.4707145290000000e+01
0.0000000000000000e+00 1.8073037029999998e+01
ITEM: ATOMS id type x y z
1 1 1.38 1.76 3.37
2 1 5.2 4.47 1.11
3 1 6.59 5.39 3.31
4 1 5.28 4.49 5.56
5 1 2.59 0.84 5.67
6 1 2.69 5.43 5.56
7 1 5.2 1.71 1.07
8 1 5.2 1.73 5.58
9 1 1.32 4.61 7.82
10 1 1.3 4.52 3.36
11 1 2.61 5.41 1.1
12 1 2.59 0.82 1.07
13 1 6.54 0.87 3.33
14 1 6.54 0.88 7.83
15 1 6.51 5.4 7.86
16 1 1.35 1.85 7.92
17 1 9.2 1.76 3.37
18 1 13.05 4.55 1.15
19 1 14.35 5.46 3.4
20 1 13.1 4.49 5.66
21 1 10.41 0.84 5.67
22 1 10.51 5.43 5.65
23 1 13.07 1.79 1.07
24 1 13.02 1.73 5.58
25 1 9.15 4.61 7.91
26 1 9.2 4.52 3.4
27 1 10.45 5.49 1.15
28 1 10.49 0.82 1.12
29 1 14.36 0.87 3.33
30 1 14.36 0.88 7.83
31 1 14.36 5.48 7.9
32 1 9.17 1.85 7.92
33 1 1.3 9.11 3.32
34 1 5.3 11.9 1.11
35 1 6.53 12.81 3.4
36 1 5.2 11.84 5.61
37 1 2.59 8.19 5.58
38 1 2.61 12.79 5.61
39 1 5.25 9.14 1.16
40 1 5.2 9.08 5.67
41 1 1.32 11.96 7.91
42 1 1.38 11.87 3.31
43 1 2.69 12.77 1.06
44 1 2.67 8.17 1.12
45 1 6.49 8.14 3.42
46 1 6.49 8.16 7.92
47 1 6.53 12.83 7.81
48 1 1.35 9.21 7.83
49 1 9.09 9.19 3.37
50 1 13.13 11.9 1.11
51 1 14.44 12.82 3.35
52 1 13.1 11.84 5.56
53 1 10.41 8.19 5.58
54 1 10.51 12.79 5.65
55 1 12.99 9.14 1.12
56 1 13.02 9.08 5.67
57 1 9.12 11.89 7.86
58 1 9.15 11.95 3.4
59 1 10.51 12.77 1.15
60 1 10.38 8.25 1.12
61 1 14.29 8.22 3.37
62 1 14.36 8.24 7.92
63 1 14.36 12.83 7.81
64 1 9.12 9.13 7.83
65 1 1.35 1.83 12.45
66 1 5.2 4.47 10.14
67 1 6.59 5.39 12.34
68 1 5.3 4.56 14.65
69 1 2.67 0.84 14.66
70 1 2.69 5.43 14.6
71 1 5.28 1.71 10.15
72 1 5.25 1.81 14.61
73 1 1.32 4.61 16.85
74 1 1.32 4.59 12.35
75 1 2.63 5.49 10.09
76 1 2.64 0.89 10.2
77 1 6.57 0.79 12.41
78 1 6.54 0.88 16.87
79 1 6.53 5.48 16.94
80 1 1.35 1.85 16.86
81 1 9.2 1.76 12.41
82 1 13.02 4.47 10.14
83 1 14.35 5.46 12.34
84 1 13.05 4.57 14.6
85 1 10.46 0.91 14.71
86 1 10.46 5.51 14.69
87 1 13.1 1.71 10.15
88 1 13.07 1.81 14.61
89 1 9.15 4.61 16.94
90 1 9.2 4.52 12.44
91 1 10.45 5.49 10.18
92 1 10.49 0.82 10.16
93 1 14.39 0.79 12.41
94 1 14.36 0.88 16.87
95 1 14.33 5.4 16.89
96 1 9.17 1.85 16.96
97 1 1.3 9.11 12.45
98 1 5.28 11.83 10.1
99 1 6.59 12.74 12.34
100 1 5.3 11.92 14.65
101 1 2.59 8.19 14.71
102 1 2.69 12.79 14.6
103 1 5.2 9.07 10.2
104 1 5.17 9.16 14.66
105 1 1.38 11.89 16.85
106 1 1.38 11.87 12.35
107 1 2.71 12.84 10.14
108 1 2.56 8.25 10.16
109 1 6.49 8.14 12.46
110 1 6.46 8.24 16.91
111 1 6.61 12.83 16.89
112 1 1.3 9.13 16.96
113 1 9.09 9.19 12.41
114 1 13.13 11.9 10.14
115 1 14.41 12.74 12.44
116 1 13.1 11.84 14.69
117 1 10.38 8.27 14.66
118 1 10.53 12.86 14.64
119 1 12.99 9.14 10.15
120 1 13.02 9.08 14.7
121 1 9.23 11.96 16.9
122 1 9.23 11.95 12.39
123 1 10.51 12.77 10.09
124 1 10.38 8.25 10.16
125 1 14.29 8.22 12.41
126 1 14.31 8.16 16.96
127 1 14.44 12.83 16.89
128 1 9.09 9.21 16.91
129 2 0.46 1.48 3.37
130 2 1.33 2.71 3.37
131 2 5.68 4.81 1.86
132 2 5.67 4.81 0.35
133 2 6.13 5.1 4.1
134 2 6.56 6.34 3.34
135 2 4.38 4.84 5.6
136 2 5.7 4.83 6.36
137 2 2.17 1.18 4.88
138 2 3.49 1.17 5.63
139 2 2.23 5.15 6.35
140 2 2.65 6.39 5.59
141 2 5.65 1.43 1.86
142 2 5.23 2.67 1.1
143 2 5.23 2.69 5.61
144 2 5.65 1.45 6.37
145 2 1.78 4.88 8.61
146 2 1.33 3.65 7.85
147 2 1.78 4.85 4.11
148 2 1.78 4.85 2.6
149 2 3.52 5.14 1.1
150 2 2.64 6.37 1.11
151 2 3.49 1.15 1.11
152 2 2.17 1.16 1.87
153 2 6.09 1.14 4.12
154 2 6.53 14.6171 3.37
155 2 6.09 1.15 8.63
156 2 6.53 14.6371 7.86
157 2 7.43 5.14 7.86
158 2 6.53 6.36 7.86
159 2 1.77 1.51 7.13
160 2 0.46 1.51 7.89
161 2 9.16 2.71 3.37
162 2 8.28 1.48 3.37
163 2 13.06 3.59 1.12
164 2 13.5 4.82 0.36
165 2 13.94 5.12 2.61
166 2 15.25 5.14 3.36
167 2 13.52 4.82 4.86
168 2 12.21 4.84 5.62
169 2 11.31 1.17 5.63
170 2 10 1.18 4.88
171 2 10.47 6.39 5.62
172 2 10.05 5.15 4.86
173 2 12.18 1.46 1.11
174 2 13.49 1.45 1.86
175 2 13.05 2.69 5.61
176 2 13.48 1.45 6.37
177 2 9.61 4.88 7.11
178 2 9.16 3.65 7.88
179 2 8.3 4.84 3.36
180 2 9.61 4.85 2.61
181 2 10.04 5.17 0.35
182 2 11.35 5.14 1.11
183 2 10.02 1.16 0.36
184 2 10.02 1.16 1.88
185 2 13.91 1.14 4.12
186 2 14.35 14.6171 3.37
187 2 13.91 1.15 8.63
188 2 14.36 14.6371 7.86
189 2 13.94 5.14 7.11
190 2 15.26 5.16 7.86
191 2 8.28 1.51 7.89
192 2 9.59 1.51 7.13
193 2 1.75 8.83 4.12
194 2 1.33 10.07 3.36
195 2 4.39 12.19 1.1
196 2 5.25 10.94 1.11
197 2 7.43 12.49 3.36
198 2 6.12 12.48 2.61
199 2 5.68 12.17 4.85
200 2 5.68 12.18 6.37
201 2 2.17 8.54 6.37
202 2 3.49 8.52 5.61
203 2 2.64 13.74 5.61
204 2 3.52 12.51 5.61
205 2 4.35 8.81 1.13
206 2 5.66 8.81 0.36
207 2 5.23 10.04 5.63
208 2 5.65 8.8 4.88
209 2 1.78 12.24 7.11
210 2 1.34 11.01 7.88
211 2 0.48 12.2 3.35
212 2 1.79 12.21 4.11
213 2 2.23 12.49 1.85
214 2 2.65 13.72 1.09
215 2 2.19 8.52 1.88
216 2 2.2 8.52 0.36
217 2 7.38 8.49 3.39
218 2 6.07 8.48 2.63
219 2 6.07 8.5 7.13
220 2 7.38 8.51 7.89
221 2 6.12 12.49 8.61
222 2 7.43 12.51 7.85
223 2 0.46 8.86 7.86
224 2 1.77 8.86 8.62
225 2 9.57 8.85 4.13
226 2 9.57 8.84 2.61
227 2 12.21 12.19 1.1
228 2 13.08 10.94 1.11
229 2 13.95 12.48 2.6
230 2 13.95 12.48 4.11
231 2 13.52 12.18 6.36
232 2 12.21 12.19 5.6
233 2 11.31 8.52 5.61
234 2 10 8.54 6.37
235 2 10.47 13.74 5.62
236 2 10.05 12.51 4.86
237 2 13.47 8.8 1.87
238 2 13.47 8.81 0.36
239 2 13.48 8.8 4.88
240 2 13.05 10.04 5.63
241 2 9.6 12.22 8.62
242 2 9.6 12.22 7.11
243 2 9.16 10.99 3.37
244 2 9.61 12.22 2.61
245 2 10.48 13.72 1.13
246 2 10.05 12.49 0.35
247 2 11.3 8.53 1.12
248 2 10.43 7.29 1.11
249 2 15.2 8.51 3.37
250 2 14.34 7.26 3.37
251 2 14.36 7.28 7.88
252 2 13.91 8.52 7.13
253 2 15.26 12.51 7.85
254 2 13.94 12.49 8.61
255 2 9.15 10.09 7.86
256 2 9.57 8.85 8.62
257 2 1.77 1.49 11.66
258 2 0.46 1.49 12.42
259 2 5.68 4.81 10.9
260 2 5.67 4.81 9.38
261 2 6.56 6.34 12.38
262 2 6.13 5.1 13.14
263 2 4.39 4.85 14.65
264 2 5.25 3.61 14.65
265 2 2.19 1.18 13.9
266 2 2.19 1.18 15.42
267 2 2.23 5.15 15.39
268 2 2.65 6.39 14.63
269 2 4.36 1.44 10.15
270 2 5.24 2.67 10.15
271 2 4.35 1.48 14.65
272 2 5.66 1.47 15.41
273 2 1.78 4.88 17.65
274 2 1.33 3.65 16.89
275 2 1.78 4.87 13.14
276 2 1.34 3.64 12.39
277 2 2.21 5.16 10.89
278 2 3.52 5.14 10.13
279 2 2.19 1.18 9.41
280 2 2.63 14.6471 10.16
281 2 6.09 1.13 11.65
282 2 6.09 1.14 13.17
283 2 6.53 14.6371 16.9
284 2 6.09 1.15 17.67
285 2 7.43 5.16 16.9
286 2 6.12 5.14 16.15
287 2 0.46 1.51 16.89
288 2 1.77 1.51 17.66
289 2 8.28 1.48 12.41
290 2 9.16 2.71 12.4
291 2 13.5 4.81 9.38
292 2 13.5 4.81 10.9
293 2 15.25 5.14 12.39
294 2 13.94 5.13 13.14
295 2 13.51 4.84 15.39
296 2 13.06 3.61 14.64
297 2 10.46 14.6671 14.67
298 2 10.01 1.19 13.91
299 2 11.35 5.16 14.65
300 2 10.04 5.17 13.9
301 2 13.07 2.67 10.15
302 2 12.18 1.44 10.15
303 2 13.49 1.47 15.41
304 2 12.18 1.48 14.65
305 2 9.16 3.65 16.91
306 2 9.61 4.88 16.15
307 2 9.61 4.85 11.64
308 2 8.3 4.84 12.4
309 2 10.04 5.17 9.39
310 2 11.35 5.14 10.15
311 2 10.02 1.16 10.91
312 2 10.02 1.16 9.4
313 2 13.92 1.13 11.65
314 2 13.92 1.14 13.17
315 2 13.91 1.15 17.67
316 2 14.36 14.6371 16.9
317 2 14.36 6.36 16.9
318 2 15.25 5.14 16.9
319 2 8.28 1.51 16.93
320 2 9.59 1.51 16.17
321 2 1.75 8.83 11.66
322 2 1.33 10.07 12.41
323 2 5.7 12.16 10.89
324 2 4.38 12.17 10.13
325 2 6.13 12.46 13.14
326 2 6.56 13.7 12.38
327 2 4.39 12.21 14.65
328 2 5.25 10.96 14.65
329 2 3.49 8.52 14.67
330 2 2.17 8.53 13.91
331 2 2.65 13.74 14.63
332 2 2.23 12.5 15.39
333 2 5.22 10.02 10.17
334 2 5.65 8.79 9.4
335 2 5.65 8.81 13.9
336 2 5.65 8.82 15.42
337 2 0.48 12.22 16.89
338 2 1.79 12.22 17.65
339 2 0.48 12.2 12.39
340 2 1.79 12.21 13.14
341 2 2.23 12.52 9.38
342 2 2.23 12.51 10.89
343 2 2.61 7.29 10.15
344 2 3.48 8.53 10.16
345 2 7.38 8.49 12.42
346 2 6.07 8.48 11.66
347 2 6.52 7.28 16.91
348 2 7.37 8.53 16.91
349 2 6.14 12.5 17.65
350 2 6.13 12.5 16.14
351 2 1.75 8.84 16.16
352 2 1.33 10.09 16.92
353 2 9.57 8.85 13.16
354 2 9.57 8.84 11.65
355 2 13.08 10.94 10.15
356 2 12.21 12.19 10.14
357 2 14.37 13.7 12.41
358 2 13.95 12.46 11.65
359 2 12.21 12.19 14.66
360 2 13.52 12.17 13.9
361 2 11.3 8.55 14.66
362 2 10.43 7.31 14.66
363 2 10.05 12.53 15.4
364 2 10.05 12.52 13.89
365 2 13.47 8.81 9.39
366 2 13.47 8.8 10.91
367 2 13.48 8.8 13.91
368 2 13.05 10.04 14.67
369 2 9.19 11.01 16.9
370 2 8.31 12.24 16.9
371 2 8.31 12.22 12.39
372 2 9.19 10.99 12.4
373 2 10.48 13.72 10.13
374 2 10.05 12.49 10.88
375 2 10.43 7.29 10.15
376 2 11.3 8.53 10.16
377 2 15.2 8.51 12.41
378 2 14.34 7.26 12.4
379 2 15.2 8.51 16.93
380 2 13.89 8.5 16.17
381 2 13.96 12.5 17.65
382 2 13.95 12.5 16.14
383 2 9.57 8.86 16.15
384 2 9.56 8.86 17.67
ITEM: TIMESTEP
200
ITEM: NUMBER OF ATOMS
384
ITEM: BOX BOUNDS pp pp pp
2.4136573719089505e-01 1.5404311792809107e+01
2.3499875751976607e-01 1.4472146532480238e+01
3.2049711169290340e-01 1.7752539918307097e+01
ITEM: ATOMS id type x y z
1 1 1.27134 1.65759 3.33614
2 1 5.03265 4.43849 0.983476
3 1 6.33095 5.31244 3.24993
4 1 5.0336 4.3311 5.41568
5 1 2.55718 0.697433 5.38481
6 1 2.4641 5.25397 5.52016
7 1 5.03988 1.78702 1.04534
8 1 5.12069 1.61505 5.4426
9 1 1.26255 4.38774 7.61162
10 1 1.27231 4.35161 3.26913
11 1 2.54749 5.24483 1.17173
12 1 2.46138 0.861103 1.05987
13 1 6.22145 0.897629 3.24349
14 1 6.28777 0.697724 7.64985
15 1 6.2919 5.22853 7.57249
16 1 1.37362 1.7182 7.52939
17 1 8.81302 1.83752 3.25595
18 1 12.6594 4.37263 0.975315
19 1 13.941 5.21224 3.2385
20 1 12.6887 4.37417 5.39172
21 1 10.1209 0.88033 5.34274
22 1 10.1861 5.25175 5.44276
23 1 12.7533 1.7414 1.02068
24 1 12.746 1.73862 5.28766
25 1 8.87549 4.24802 7.6508
26 1 8.90982 4.46226 3.23715
27 1 10.0645 5.33396 1.05421
28 1 10.1007 0.963625 1.10069
29 1 13.8947 0.785324 3.16093
30 1 13.974 0.841604 7.60527
31 1 14.0097 5.18932 7.65654
32 1 8.80642 1.67927 7.54396
33 1 1.3314 8.76117 3.24281
34 1 5.06166 11.5231 1.15022
35 1 6.36989 12.3564 3.20854
36 1 5.05366 11.5165 5.36167
37 1 2.53943 7.9791 5.38449
38 1 2.49907 12.3603 5.30974
39 1 5.00405 8.86649 1.07188
40 1 5.12644 8.8732 5.41475
41 1 1.33142 11.5252 7.51907
42 1 1.33802 11.405 3.16605
43 1 2.56663 12.3814 1.01407
44 1 2.60278 7.90025 1.05902
45 1 6.33337 7.99078 3.31305
46 1 6.29719 7.91086 7.57739
47 1 6.26874 12.3777 7.58525
48 1 1.30998 8.86786 7.65199
49 1 8.88836 8.80749 3.25376
50 1 12.743 11.4502 1.02918
51 1 13.9922 12.2893 3.19562
52 1 12.7318 11.6027 5.40814
53 1 10.1176 7.90092 5.40313
54 1 10.0887 12.4026 5.36076
55 1 12.6123 8.78154 1.1434
56 1 12.5654 8.81814 5.32756
57 1 8.81182 11.3866 7.50108
58 1 8.84096 11.4372 3.20843
59 1 10.1507 12.4866 1.08845
60 1 10.081 8.03817 1.14922
61 1 14.0051 7.98724 3.23951
62 1 13.8195 7.92865 7.52589
63 1 13.9663 12.5341 7.58276
64 1 8.80228 8.78355 7.58785
65 1 1.27777 1.7068 11.9996
66 1 5.13007 4.3861 9.80677
67 1 6.28638 5.38671 11.9462
68 1 5.14245 4.3803 14.1131
69 1 2.58084 0.84993 14.2522
70 1 2.6682 5.24941 14.0928
71 1 5.14514 1.71608 9.86424
72 1 5.1262 1.64796 14.2068
73 1 1.30179 4.37381 16.317
74 1 1.43094 4.426 11.9973
75 1 2.62145 5.25603 9.65454
76 1 2.59176 0.889115 9.78914
77 1 6.34647 0.860324 11.9965
78 1 6.4116 0.737922 16.3711
79 1 6.32886 5.31046 16.2486
80 1 1.28238 1.76707 16.3459
81 1 8.85575 1.66483 11.9871
82 1 12.7203 4.33206 9.80033
83 1 13.9559 5.31402 11.9384
84 1 12.6403 4.41803 14.0845
85 1 10.1373 0.844319 14.2035
86 1 10.0496 5.20666 14.0293
87 1 12.6696 1.76707 9.77266
88 1 12.7447 1.7169 14.1984
89 1 8.77906 4.4345 16.3504
90 1 8.8112 4.39712 11.8436
91 1 10.1906 5.27372 9.69701
92 1 10.1065 0.860378 9.78715
93 1 13.9167 0.851584 11.8953
94 1 13.9978 0.780692 16.2951
95 1 13.9033 5.28184 16.1934
96 1 8.89511 1.82131 16.2923
97 1 1.13816 8.82534 11.9541
98 1 5.07884 11.5657 9.77525
99 1 6.35952 12.3751 11.9416
100 1 5.06675 11.4817 14.174
101 1 2.57731 8.02223 14.1802
102 1 2.59987 12.4061 14.1105
103 1 5.02956 8.91456 9.73065
104 1 5.04207 8.79187 14.2243
105 1 1.37319 11.4985 16.2256
106 1 1.32886 11.5094 12.0187
107 1 2.57038 12.4182 9.89876
108 1 2.53772 7.91424 9.75139
109 1 6.19902 7.99839 11.9672
110 1 6.28518 8.01167 16.3596
111 1 6.33801 12.3965 16.3368
112 1 1.24754 8.85492 16.3758
113 1 8.81635 8.68173 11.8925
114 1 12.5987 11.5438 9.7938
115 1 13.9422 12.4265 11.9982
116 1 12.7613 11.5436 14.1843
117 1 9.99718 7.933 14.2663
118 1 10.3119 12.405 14.1985
119 1 12.6154 8.93877 9.74773
120 1 12.6368 8.85991 14.1822
121 1 8.89063 11.5897 16.2714
122 1 8.97268 11.4691 12.0116
123 1 10.1154 12.3994 9.68147
124 1 10.1297 7.90224 9.79556
125 1 13.7684 7.95713 11.9867
126 1 13.951 7.92872 16.3459
127 1 14.0596 12.3695 16.2999
128 1 8.8384 8.87969 16.3766
129 2 0.365146 1.24543 3.38372
130 2 1.13032 2.57837 3.31484
131 2 5.47108 4.63148 1.79558
132 2 5.57652 4.7072 17.6642
133 2 5.89798 4.81129 4.01792
134 2 6.23711 6.26448 3.12675
135 2 4.19308 4.67522 5.28014
136 2 5.47506 4.77998 6.41488
137 2 2.05946 1.14704 4.54599
138 2 3.49802 1.25546 5.36838
139 2 2.17992 5.03806 6.46148
140 2 2.41066 6.40992 5.49275
141 2 5.30347 1.50635 1.91568
142 2 5.15556 2.71505 1.11571
143 2 5.21214 2.60813 5.45276
144 2 5.44708 1.23278 6.30892
145 2 1.76653 4.7322 8.35654
146 2 1.21121 3.31527 7.72951
147 2 1.73969 4.63352 4.08517
148 2 1.67629 4.80449 2.50586
149 2 3.61533 5.18921 1.11908
150 2 2.33561 6.26316 1.23655
151 2 3.38946 1.20085 0.894179
152 2 2.20903 1.1344 2.00099
153 2 5.78406 1.22207 4.26578
154 2 6.30352 14.2913 3.21557
155 2 5.78002 1.18933 8.49842
156 2 6.27445 14.0535 7.64365
157 2 7.29014 4.85663 7.50102
158 2 6.30148 6.26302 7.43602
159 2 1.7575 1.1573 6.71842
160 2 0.448267 1.26871 7.71465
161 2 8.59117 2.8203 3.13589
162 2 7.96721 1.28505 3.21113
163 2 12.7353 3.41598 1.04177
164 2 13.3173 4.65569 17.6643
165 2 13.6196 4.73817 2.25249
166 2 14.8743 5.04459 3.37493
167 2 13.0988 4.61837 4.6486
168 2 11.8831 4.75292 5.31851
169 2 11.0924 1.17792 5.37675
170 2 9.60256 1.1433 4.59913
171 2 9.96887 6.26548 5.34127
172 2 9.79522 4.82442 4.78989
173 2 11.8915 1.37325 1.08968
174 2 13.0645 1.1004 1.85847
175 2 12.8454 2.88378 5.3098
176 2 13.0203 1.32936 6.29363
177 2 9.38221 4.75601 6.83097
178 2 8.82373 3.23503 7.59517
179 2 7.94303 4.78222 3.45715
180 2 9.33745 4.66753 2.39255
181 2 9.68362 5.05345 17.7311
182 2 11.0516 4.97231 0.950957
183 2 9.60133 1.00447 17.6366
184 2 9.65212 1.4739 1.84121
185 2 13.5555 1.17709 4.03254
186 2 13.9449 13.9328 3.22314
187 2 13.5541 1.36454 8.4466
188 2 13.79 14.0306 7.7611
189 2 13.5853 4.83004 6.85022
190 2 15.0214 5.01308 7.61374
191 2 7.96051 1.00625 7.72717
192 2 9.49299 1.24789 6.79378
193 2 1.90767 8.65231 4.00826
194 2 1.42137 9.87903 3.05178
195 2 4.07222 11.667 1.15506
196 2 5.0142 10.4403 1.18351
197 2 7.37549 11.9732 3.13394
198 2 5.95356 12.0597 2.35058
199 2 5.75378 11.6896 4.5546
200 2 5.39512 12.021 6.05495
201 2 1.9763 8.34889 6.33773
202 2 3.69917 8.3789 5.19531
203 2 2.40044 13.3298 5.20225
204 2 3.48285 12.0419 5.31561
205 2 3.89979 8.67513 0.995645
206 2 5.35164 8.04956 0.508639
207 2 4.95101 9.79843 5.21974
208 2 5.67014 8.29409 4.48258
209 2 1.91063 11.9328 6.7879
210 2 1.36695 10.6222 7.47786
211 2 0.339282 11.9659 3.17309
212 2 1.84589 11.7168 4.02238
213 2 2.12647 11.8559 1.72768
214 2 2.55296 13.418 1.11455
215 2 2.22248 8.23399 1.89521
216 2 2.12391 8.39049 0.43283
217 2 7.27775 8.34619 3.34253
218 2 6.01204 8.40693 2.54883
219 2 5.95032 8.35751 6.74118
220 2 7.28692 8.30106 7.68112
221 2 5.76949 12.1066 8.33725
222 2 7.08798 11.8701 7.75942
223 2 0.567053 8.32459 7.70719
224 2 2.05787 8.44813 8.28905
225 2 9.41824 8.57866 4.10723
226 2 9.34272 8.40064 2.46903
227 2 11.9403 11.8937 1.11502
228 2 12.6564 10.4747 1.00593
229 2 13.5298 11.902 2.37039
230 2 13.4305 11.9173 4.07024
231 2 13.4324 12.0267 6.09373
232 2 11.8208 11.9498 5.48839
233 2 11.0889 8.0541 5.5612
234 2 9.56816 8.3673 6.30136
235 2 10.2903 13.3699 5.47239
236 2 9.9295 12.1669 4.47408
237 2 13.1146 8.54123 2.04081
238 2 12.9938 8.39845 17.5745
239 2 13.0076 8.62247 4.53314
240 2 12.667 9.8179 5.32154
241 2 9.34013 11.9137 8.42467
242 2 9.17087 12.0525 6.69057
243 2 8.84221 10.5022 3.23715
244 2 9.42651 11.8945 2.55366
245 2 9.95463 13.4776 1.0881
246 2 9.61849 12.1516 0.344285
247 2 11.0286 8.09795 1.1175
248 2 9.8945 7.0575 0.891079
249 2 15.0118 8.49119 3.32267
250 2 13.9917 7.10194 3.14078
251 2 13.8557 6.86542 7.5448
252 2 13.4942 8.28746 6.56047
253 2 15.0265 12.1269 7.52095
254 2 13.4986 12.2513 8.3484
255 2 8.84845 9.79305 7.60034
256 2 9.24568 8.51739 8.23072
257 2 1.73863 1.37447 11.1239
258 2 0.261934 1.34952 11.9219
259 2 5.58451 4.84603 10.5315
260 2 5.85302 4.69467 9.05645
261 2 6.24457 6.36216 11.9394
262 2 5.73928 5.0889 12.8019
263 2 4.09493 4.6828 14.1523
264 2 5.25304 3.41006 14.0633
265 2 2.21754 1.18887 13.4231
266 2 2.16549 0.996359 14.9992
267 2 1.96979 4.90758 14.9317
268 2 2.62696 6.17588 14.1344
269 2 4.20853 1.57441 10.0025
270 2 5.20773 2.64445 10.0022
271 2 4.19474 1.33368 14.3683
272 2 5.67075 1.55105 15.0794
273 2 1.67325 4.72356 17.1802
274 2 1.21668 3.38218 16.327
275 2 2.068 4.70037 12.8479
276 2 1.38248 3.29959 11.998
277 2 2.10882 4.99093 10.4276
278 2 3.73725 4.86 9.74672
279 2 2.07462 1.02646 9.03642
280 2 2.52521 14.125 9.73627
281 2 5.88473 1.23507 11.1941
282 2 5.99433 1.18788 12.7481
283 2 6.38057 13.9296 16.3016
284 2 5.92574 1.06144 17.0727
285 2 7.31278 4.8765 16.3121
286 2 5.8741 4.97615 15.3919
287 2 0.288151 1.37063 16.4922
288 2 1.69022 1.26831 17.3705
289 2 7.75635 1.54205 12.015
290 2 8.7908 2.72131 11.9861
291 2 13.2813 4.60193 8.93162
292 2 12.9489 4.78332 10.724
293 2 14.8944 4.95728 11.93
294 2 13.6221 4.84745 12.8432
295 2 13.1498 4.74974 14.8855
296 2 12.6976 3.45383 14.0811
297 2 10.2808 14.0921 14.2054
298 2 9.58944 1.09464 13.3214
299 2 11.0574 4.99486 13.9374
300 2 9.68558 4.8489 13.2295
301 2 12.6493 2.75293 9.80943
302 2 11.6597 1.5257 9.85972
303 2 13.1335 1.29858 15.1211
304 2 11.7111 1.32558 14.1868
305 2 8.9714 3.46977 16.2381
306 2 9.30198 4.81614 15.6207
307 2 9.12538 4.7013 11.0662
308 2 7.83595 4.74886 11.8266
309 2 9.6736 4.88336 8.76733
310 2 11.2976 4.95309 9.71499
311 2 9.64898 1.14504 10.6506
312 2 9.61436 1.19768 9.02343
313 2 13.5692 1.23037 10.9479
314 2 13.3326 1.12798 12.8616
315 2 13.6111 0.949887 17.0954
316 2 14.0963 13.8324 16.2768
317 2 13.8147 6.27998 16.295
318 2 14.911 5.14725 16.2557
319 2 7.85191 1.748 16.3553
320 2 9.4448 1.44772 15.5551
321 2 1.74914 8.58523 11.0073
322 2 1.23587 10.0224 12.0303
323 2 5.7041 11.8479 10.4392
324 2 4.21439 12.077 9.90988
325 2 5.89602 11.9496 12.8037
326 2 6.38573 13.3289 11.9759
327 2 4.23539 11.7442 14.0822
328 2 5.20699 10.4743 14.108
329 2 3.36517 8.50453 14.2925
330 2 2.16191 8.31221 13.416
331 2 2.62117 13.5744 14.1754
332 2 2.11404 12.2546 14.9593
333 2 5.18339 9.80993 9.61301
334 2 5.34833 8.5052 8.87176
335 2 5.5907 8.41602 13.3672
336 2 5.63922 8.49027 15.0303
337 2 0.4515 11.9009 16.4313
338 2 1.87745 11.6513 17.0943
339 2 0.422013 11.8492 11.8748
340 2 1.72564 12.1753 12.672
341 2 2.11692 11.9301 9.14656
342 2 2.06407 12.1216 10.5834
343 2 2.5518 6.9237 9.58363
344 2 3.41652 8.23145 9.61413
345 2 7.00482 8.5493 11.9501
346 2 5.79897 8.48287 11.1874
347 2 6.28377 7.09453 16.1767
348 2 7.29818 8.48019 16.4097
349 2 5.99954 12.0069 17.1103
350 2 6.0336 12.0775 15.6686
351 2 1.75535 8.72591 15.5096
352 2 1.16108 10.0193 16.2739
353 2 9.3637 8.31831 12.6638
354 2 9.05794 8.11832 11.2452
355 2 12.7334 10.536 9.76775
356 2 11.6185 11.8701 9.88122
357 2 13.8312 13.4271 12.0681
358 2 13.4322 12.2263 10.9804
359 2 11.9578 11.8844 14.2671
360 2 13.2852 11.8297 13.4037
361 2 10.9452 8.1755 14.1514
362 2 9.8018 6.8249 14.1878
363 2 9.87713 12.0283 14.9883
364 2 9.63597 12.1109 13.4745
365 2 12.9327 8.58411 8.98184
366 2 13.2626 8.30602 10.5795
367 2 12.9554 8.62325 13.2635
368 2 12.7181 9.88281 14.3134
369 2 9.17868 10.7638 16.4209
370 2 7.81022 11.6792 16.2633
371 2 8.09401 11.7397 12.139
372 2 8.81636 10.441 12.0091
373 2 10.2877 13.367 9.60953
374 2 9.50668 12.205 10.5202
375 2 10.1006 6.85089 9.74706
376 2 11.0179 8.35503 9.68208
377 2 14.776 8.3265 12.0333
378 2 14.0565 6.99286 12.177
379 2 14.8479 8.28696 16.2292
380 2 13.3846 8.26705 15.4219
381 2 13.5264 11.9064 17.0345
382 2 13.5962 12.0732 15.5239
383 2 9.1279 8.4673 15.4278
384 2 9.52656 8.64049 17.2183
ITEM: TIMESTEP
400
ITEM: NUMBER OF ATOMS
384
ITEM: BOX BOUNDS pp pp pp
4.6654049692420863e-01 1.5179137033075790e+01
4.3348055518130035e-01 1.4273664734818711e+01
6.2313843955395143e-01 1.7449898590446061e+01
ITEM: ATOMS id type x y z
1 1 1.39611 1.65184 3.27904
2 1 5.09811 4.42022 1.15063
3 1 6.19498 5.15643 3.22922
4 1 4.84751 4.21349 5.206
5 1 2.5415 0.595308 5.35398
6 1 2.45494 5.15827 5.29483
7 1 4.91402 1.77817 1.2254
8 1 4.95098 1.65113 5.16846
9 1 1.21718 4.26893 7.41228
10 1 1.19987 4.29484 3.09607
11 1 2.53912 5.04292 1.06342
12 1 2.48887 0.930864 1.06786
13 1 6.14899 0.820523 3.15838
14 1 6.30929 0.819958 7.34525
15 1 6.11849 5.1294 7.19529
16 1 1.50811 1.73776 7.32582
17 1 8.56217 1.77157 3.19104
18 1 12.2474 4.19949 0.811568
19 1 13.4011 5.02301 2.93459
20 1 12.2268 4.11864 5.08818
21 1 9.93741 0.689581 5.15429
22 1 9.85589 5.11941 5.20958
23 1 12.2461 1.54722 1.03296
24 1 12.4217 1.56464 5.24095
25 1 8.64398 4.12855 7.28502
26 1 8.55472 4.3897 2.99368
27 1 9.87274 5.19543 0.853049
28 1 9.74006 0.919235 1.12666
29 1 13.6518 0.923227 3.12058
30 1 13.6169 0.830408 7.55459
31 1 13.5315 5.19842 7.15054
32 1 8.73587 1.48419 7.35164
33 1 1.27756 8.55994 3.18403
34 1 4.96503 11.1384 1.07933
35 1 6.2366 12.0789 3.04121
36 1 4.95421 11.2097 5.07107
37 1 2.45637 7.69485 5.38761
38 1 2.38112 11.8205 5.25161
39 1 4.85398 8.60814 1.05655
40 1 4.88289 8.59746 5.08872
41 1 1.16732 11.1187 7.36524
42 1 1.17758 11.1548 3.08365
43 1 2.60827 12.1964 1.02238
44 1 2.39393 7.60621 0.976334
45 1 6.3 7.72114 3.04173
46 1 6.19028 7.78118 7.30948
47 1 5.99234 11.9994 7.32703
48 1 1.11379 8.46525 7.28952
49 1 8.70199 8.5848 3.06152
50 1 12.3403 11.1394 1.03759
51 1 13.4422 12.1991 3.14503
52 1 12.3825 11.3532 5.29555
53 1 9.8098 7.63336 5.26824
54 1 9.79557 11.9928 5.30878
55 1 12.4153 8.65977 1.11968
56 1 12.2304 8.73042 5.10999
57 1 8.49756 11.2185 7.26492
58 1 8.68803 11.1783 3.1343
59 1 9.95657 12.18 1.06187
60 1 9.88013 7.76781 1.00604
61 1 13.6009 7.68681 3.13515
62 1 13.3584 7.76169 7.22235
63 1 13.5109 12.121 7.49669
64 1 8.46279 8.60862 7.25811
65 1 1.42299 1.65145 11.5567
66 1 4.95958 4.19832 9.4058
67 1 6.17274 5.25844 11.5715
68 1 4.97237 4.41037 13.6401
69 1 2.53542 0.758656 13.6715
70 1 2.51031 5.1837 13.6972
71 1 4.99362 1.59722 9.64823
72 1 4.99414 1.89938 13.7982
73 1 1.14145 4.33238 15.6863
74 1 1.35912 4.19804 11.6711
75 1 2.47451 5.16152 9.61905
76 1 2.56203 0.781657 9.53588
77 1 6.22588 0.723283 11.7551
78 1 6.14319 0.766681 15.9076
79 1 6.31464 5.13546 15.8036
80 1 1.13354 1.63505 15.737
81 1 8.48684 1.7393 11.5407
82 1 12.3947 4.34304 9.44256
83 1 13.5671 5.14047 11.5581
84 1 12.2001 4.1542 13.5846
85 1 9.75429 0.8118 13.5415
86 1 9.8037 4.96159 13.4427
87 1 12.1676 1.72808 9.59902
88 1 12.3284 1.48803 13.6969
89 1 8.66687 4.10674 15.6359
90 1 8.49204 4.27746 11.3055
91 1 9.91696 5.21412 9.24229
92 1 9.93843 0.739005 9.52177
93 1 13.6415 0.9755 11.5128
94 1 13.6151 0.573683 15.8456
95 1 13.4527 5.19314 15.525
96 1 8.61906 1.54998 15.6709
97 1 1.21009 8.73134 11.5309
98 1 4.92747 11.2484 9.49782
99 1 6.14388 12.0316 11.6301
100 1 4.86394 11.2398 13.7613
101 1 2.34735 7.72207 13.6089
102 1 2.41638 12.0507 13.5818
103 1 4.75256 8.62945 9.42094
104 1 4.75423 8.7366 13.6412
105 1 1.31494 11.0347 15.8221
106 1 1.255 11.3352 11.5125
107 1 2.42482 12.0793 9.42441
108 1 2.30835 7.69169 9.44653
109 1 6.13703 7.87874 11.5171
110 1 6.21332 7.78832 15.7269
111 1 6.20293 12.0346 15.7338
112 1 1.28699 8.55018 15.7506
113 1 8.65347 8.65708 11.5273
114 1 12.2055 11.2403 9.45837
115 1 13.4859 12.211 11.4161
116 1 12.1648 11.3203 13.5265
117 1 9.79094 7.64151 13.7214
118 1 9.75075 12.0334 13.4694
119 1 12.2293 8.51419 9.44384
120 1 12.2057 8.63052 13.5618
121 1 8.7034 11.3666 15.8656
122 1 8.54638 11.1421 11.5224
123 1 9.74372 11.977 9.44333
124 1 9.80222 7.74402 9.43156
125 1 13.5237 7.69724 11.4823
126 1 13.515 7.75037 15.6903
127 1 13.5868 11.8317 15.7701
128 1 8.54491 8.6273 15.7633
129 2 15.1638 1.36338 3.19189
130 2 1.34228 2.72048 3.31515
131 2 5.5399 4.5582 2.05404
132 2 5.61156 4.43087 17.2464
133 2 5.56054 4.84884 4.07564
134 2 6.18297 6.30713 3.1764
135 2 3.79205 4.62793 5.23808
136 2 5.3766 4.55777 5.97341
137 2 1.96327 0.891564 4.44751
138 2 3.37851 1.06071 5.33231
139 2 1.92852 4.88551 6.10698
140 2 2.35545 6.15836 5.20589
141 2 5.61349 1.43156 1.87731
142 2 4.97375 2.76275 0.960189
143 2 4.67267 2.52274 5.08272
144 2 5.37717 1.2223 6.17731
145 2 1.73344 4.65232 8.11412
146 2 1.30948 3.34085 7.40295
147 2 1.60599 4.73625 3.93505
148 2 1.75341 4.58023 2.31998
149 2 3.55037 4.76855 0.910953
150 2 2.51141 6.03865 0.979831
151 2 3.41979 1.29347 1.06329
152 2 1.96549 1.32621 1.91349
153 2 5.47878 1.26597 4.12208
154 2 6.25342 13.6602 3.16431
155 2 5.91117 1.09828 8.15827
156 2 6.30458 13.6556 7.43498
157 2 7.10913 4.76915 7.06408
158 2 6.09055 6.13831 7.1169
159 2 1.6449 1.26387 6.48574
160 2 0.536461 1.26335 7.33022
161 2 8.69788 2.69373 3.25833
162 2 7.54502 1.43817 3.17045
163 2 12.2184 3.23075 0.848563
164 2 12.4473 4.4195 16.7975
165 2 12.836 4.78369 2.20319
166 2 14.4508 4.78981 3.01618
167 2 12.6742 4.35796 4.27878
168 2 11.2196 4.44361 5.03064
169 2 10.8488 0.973589 4.9338
170 2 9.4592 1.06157 4.37379
171 2 9.68068 6.16922 5.29119
172 2 9.28016 4.97554 4.37857
173 2 11.2818 1.31711 0.792576
174 2 12.9437 1.3281 1.73249
175 2 12.3803 2.57411 5.35274
176 2 12.8068 1.30336 6.23289
177 2 9.0924 4.37039 6.31856
178 2 8.62917 3.05036 7.42319
179 2 7.59512 4.56032 3.12686
180 2 8.96685 4.90304 2.17397
181 2 9.42981 4.79671 16.7239
182 2 10.7722 4.94548 0.796067
183 2 9.15471 1.15575 17.1818
184 2 9.32792 1.33133 1.92638
185 2 13.3344 1.14816 3.93939
186 2 13.5215 13.5661 3.17105
187 2 13.3071 1.1738 8.42086
188 2 13.649 13.5506 7.58674
189 2 13.2354 4.6984 6.32727
190 2 14.4571 5.16699 7.34383
191 2 7.64516 1.23425 7.20068
192 2 9.21482 1.52342 6.39779
193 2 1.88684 8.37026 3.87689
194 2 1.37544 9.53017 3.131
195 2 4.08634 11.5207 0.857057
196 2 4.90355 10.1947 1.1525
197 2 7.10784 11.7546 2.96937
198 2 5.81057 11.7008 2.26725
199 2 5.50177 11.4884 4.27715
200 2 5.47736 11.3599 5.87123
201 2 1.9649 7.99314 6.27481
202 2 3.41466 8.03701 5.48175
203 2 2.45943 12.8569 5.35489
204 2 3.39818 11.6179 5.21175
205 2 3.95685 8.26219 1.37051
206 2 5.34716 8.17199 16.9808
207 2 5.10383 9.55303 5.04461
208 2 5.56475 8.13818 4.33138
209 2 1.55874 11.2342 6.46894
210 2 1.07609 10.0977 7.45221
211 2 15.1571 11.4503 3.441
212 2 1.84024 11.6594 3.82237
213 2 1.94465 11.9466 1.71808
214 2 2.64778 13.1991 0.931391
215 2 2.04274 8.09044 1.66014
216 2 2.04696 8.01274 16.8439
217 2 7.29927 8.07561 3.18317
218 2 5.80082 7.97798 2.07698
219 2 5.66335 8.09075 6.51096
220 2 7.29463 8.18667 7.1363
221 2 5.65407 11.721 8.24149
222 2 7.05336 11.6811 7.32241
223 2 15.0053 8.06051 7.47448
224 2 1.49893 8.28755 8.17858
225 2 9.07454 8.17389 4.0143
226 2 9.14569 8.10111 2.2113
227 2 11.3492 11.4209 1.13992
228 2 12.359 10.155 1.0212
229 2 13.037 11.7817 2.18293
230 2 13.0889 11.9885 4.02507
231 2 12.8803 11.539 6.03675
232 2 11.4345 11.5166 5.26053
233 2 10.8948 7.87461 5.23152
234 2 9.44504 8.11948 6.1488
235 2 10.0215 12.9494 5.18956
236 2 9.49315 11.6592 4.44814
237 2 12.9362 8.17733 1.87935
238 2 12.6709 8.12166 17.3102
239 2 12.726 8.23144 4.5211
240 2 12.1311 9.63596 5.18054
241 2 9.08577 11.4665 8.00419
242 2 9.04247 11.6585 6.4856
243 2 8.70718 10.1668 3.02631
244 2 9.2932 11.4575 2.36093
245 2 9.8875 13.199 1.16733
246 2 9.32529 11.8267 17.0284
247 2 10.833 8.01857 0.925653
248 2 9.97904 6.66662 0.906668
249 2 14.6513 7.92333 3.43845
250 2 13.4289 6.66237 3.15429
251 2 13.3379 6.65351 7.1742
252 2 13.0761 8.16872 6.29279
253 2 14.5481 11.7657 7.49286
254 2 12.9103 11.717 8.42973
255 2 8.45004 9.64901 7.30673
256 2 8.86441 8.09725 8.0796
257 2 1.84086 1.21982 10.707
258 2 0.578681 1.39467 11.5129
259 2 5.65848 4.53005 10.1797
260 2 5.38557 4.71127 8.41552
261 2 6.03621 6.35584 11.6877
262 2 5.69321 4.94644 12.4788
263 2 3.94828 4.71961 13.6795
264 2 4.8591 3.42185 13.8115
265 2 2.09298 1.01935 12.7123
266 2 1.89791 1.25331 14.4537
267 2 2.08138 4.80004 14.5881
268 2 2.4755 6.22308 13.7385
269 2 4.20748 1.17978 9.41815
270 2 4.96511 2.72578 9.42965
271 2 3.9845 1.47227 13.7388
272 2 5.52707 1.55825 14.5584
273 2 1.76428 4.54539 16.5265
274 2 1.37986 3.29534 15.6667
275 2 1.71935 4.47236 12.4717
276 2 1.33025 3.15916 11.7445
277 2 1.99996 4.9583 10.569
278 2 3.47756 4.85068 9.6287
279 2 2.10098 1.16701 8.8061
280 2 2.51896 13.7055 9.45719
281 2 5.81756 1.15443 10.75
282 2 5.76349 1.10781 12.5312
283 2 6.02768 13.6441 15.9853
284 2 5.55859 1.18217 16.6468
285 2 7.1474 4.78501 15.6888
286 2 5.87944 4.80381 14.8885
287 2 15.0319 1.10703 15.6518
288 2 1.61834 1.39486 16.5963
289 2 7.5929 1.4609 11.7651
290 2 8.42275 2.78727 11.4212
291 2 12.844 4.61019 8.5675
292 2 12.8641 4.61609 10.308
293 2 14.7215 4.81679 11.5227
294 2 13.13 4.84258 12.5185
295 2 12.932 4.58947 14.0875
296 2 12.5289 3.06531 13.884
297 2 9.59426 13.6906 13.4532
298 2 9.25079 1.03948 12.6673
299 2 10.8456 4.56882 13.4593
300 2 9.28944 4.72265 12.6095
301 2 12.0503 2.57208 9.29421
302 2 11.2646 1.2721 9.52225
303 2 12.7385 1.26086 14.6142
304 2 11.2938 1.24351 13.5069
305 2 8.54401 3.0972 15.6812
306 2 8.91644 4.49791 14.574
307 2 9.26759 4.84279 10.5669
308 2 7.40442 4.70703 11.4124
309 2 9.50529 4.7864 8.44404
310 2 10.9138 4.92458 9.24215
311 2 9.3092 1.01688 10.207
312 2 9.48728 1.07981 8.72885
313 2 12.9871 1.30248 10.8255
314 2 13.2376 1.43311 12.4382
315 2 13.3499 0.980126 16.8679
316 2 13.6234 13.4258 15.8182
317 2 13.5123 6.21183 15.3315
318 2 14.5148 5.04818 15.6321
319 2 7.56238 1.09148 15.7524
320 2 9.02063 1.09479 14.9739
321 2 1.61844 8.40365 10.6083
322 2 0.982253 9.55646 11.297
323 2 5.50152 11.4729 10.2944
324 2 3.96709 11.5699 9.5264
325 2 5.51254 11.6091 12.3241
326 2 6.24763 12.8637 11.6905
327 2 4.02661 11.3997 13.7301
328 2 4.87133 10.2298 13.742