ITEM: TIMESTEP
0
ITEM: NUMBER OF ATOMS
384
ITEM: BOX BOUNDS pp pp pp
-3.1180958401302572e-01 1.5311809584013066e+01
-3.1180958401302572e-01 1.5311809584013066e+01
-3.1180958401302572e-01 1.5311809584013066e+01
ITEM: ATOMS id type x y z
1 1 4.57679 5.50123 13.6944
2 1 14.8875 3.66367 14.1079
3 1 8.20115 10.8513 3.91518
4 1 1.55859 4.11103 4.68534
5 1 14.0046 11.0534 10.4291
6 1 10.1562 -0.0244194 -0.0179537
7 1 13.1461 9.78511 5.92123
8 1 3.48566 13.6848 7.87681
9 1 3.32305 6.30373 3.20589
10 1 5.30735 8.37688 2.36991
11 1 13.7801 6.32188 1.70807
12 1 0.692367 10.1945 14.1186
13 1 15.0627 5.43363 4.6639
14 1 9.98456 5.97612 7.92121
15 1 12.4056 7.19481 3.96576
16 1 9.83562 2.64919 6.79506
17 1 4.60459 4.17249 11.4106
18 1 7.55062 10.3381 11.1669
19 1 8.27543 1.89543 14.4455
20 1 5.83253 14.0038 0.549654
21 1 -0.277952 13.5963 10.2649
22 1 12.6457 2.09652 6.28487
23 1 10.7129 7.40871 14.2399
24 1 2.2119 7.88472 6.40809
25 1 10.4542 9.69036 5.97773
26 1 -0.282536 8.22967 4.81222
27 1 1.6652 11.2607 4.20606
28 1 6.17365 -0.094545 10.725
29 1 12.1932 8.4542 0.381712
30 1 2.29814 6.67565 12.652
31 1 3.74006 5.65533 5.77839
32 1 7.64075 12.3667 7.75101
33 1 2.57949 3.81144 2.08856
34 1 3.31976 13.3432 0.0677147
35 1 -0.0967938 5.37115 7.46928
36 1 11.1426 14.5448 7.59235
37 1 1.26174 14.8074 2.57217
38 1 6.41618 0.335516 13.3898
39 1 0.207637 9.92258 2.18818
40 1 12.6731 13.1901 12.8323
41 1 1.29363 11.9761 7.9846
42 1 13.2286 14.8362 0.439531
43 1 -0.123887 15.1905 5.01064
44 1 8.80795 12.7708 12.0788
45 1 12.4172 6.75949 6.79319
46 1 9.49869 10.6014 8.40823
47 1 10.544 10.9934 13.3575
48 1 8.99001 12.8372 5.44675
49 1 4.04829 1.51716 14.6149
50 1 6.69928 13.1999 13.7041
51 1 4.43379 6.10378 9.26553
52 1 11.4216 -0.0969869 13.0672
53 1 8.10878 14.4288 3.40524
54 1 4.3962 2.37166 3.28729
55 1 12.1316 11.4523 8.45349
56 1 8.7458 10.8517 -0.213292
57 1 1.53862 1.7361 8.48855
58 1 8.69585 5.89847 11.616
59 1 1.22107 9.19196 8.49846
60 1 10.635 10.5731 3.14594
61 1 11.4957 4.51089 15.2148
62 1 10.9209 6.7156 10.446
63 1 4.94638 10.4223 10.3546
64 1 7.94749 8.55464 1.09697
65 1 14.5919 7.80968 8.4877
66 1 5.26248 14.7619 3.62401
67 1 5.62202 2.26942 6.97039
68 1 1.29568 -0.0251437 10.348
69 1 11.6689 12.7598 1.5126
70 1 8.10674 4.34492 9.29769
71 1 15.2574 12.5827 5.71394
72 1 5.13758 11.4238 7.95676
73 1 0.807368 7.59384 14.5622
74 1 1.07308 4.35508 11.6836
75 1 -0.103901 0.899318 12.6958
76 1 12.4336 12.7126 5.99741
77 1 6.5124 0.898083 1.44852
78 1 5.22926 7.74021 7.34722
79 1 4.69818 3.85809 0.25821
80 1 14.6318 1.53081 0.260033
81 1 8.7843 1.26425 2.88569
82 1 10.1715 2.86217 10.2074
83 1 1.97586 4.56417 8.94346
84 1 12.6683 15.2799 4.82665
85 1 10.1623 4.44247 4.67024
86 1 8.26116 6.29332 15.2182
87 1 2.75694 2.33071 12.3211
88 1 10.1168 15.0402 10.6766
89 1 0.0214213 11.8389 0.424274
90 1 9.92368 3.73613 12.9889
91 1 7.93039 3.8304 3.09944
92 1 3.45334 12.7245 2.72154
93 1 13.7442 3.34545 8.32257
94 1 1.06378 7.50528 1.70711
95 1 13.5608 9.51663 12.896
96 1 6.16563 2.34739 9.6158
97 1 6.00658 4.12469 4.96415
98 1 13.0409 2.11594 12.6389
99 1 9.44842 7.22402 5.61094
100 1 3.08802 8.31472 10.412
101 1 4.27645 12.564 12.0172
102 1 0.247817 12.7339 12.6695
103 1 6.92237 8.32243 4.80264
104 1 10.2096 9.4039 11.0142
105 1 8.10819 14.6608 9.11245
106 1 0.724807 14.5893 14.8093
107 1 7.38606 3.87893 0.612739
108 1 13.59 6.17467 11.3541
109 1 6.57455 9.82429 14.0409
110 1 6.72525 7.05567 13.1783
111 1 3.66994 10.3273 5.96103
112 1 1.66543 1.60839 5.77048
113 1 9.05834 13.0173 1.11863
114 1 4.11235 0.213829 6.02437
115 1 10.3679 8.11545 2.36753
116 1 3.8208 14.5044 10.4834
117 1 6.27696 11.8524 2.07137
118 1 3.1417 11.1769 14.1451
119 1 12.971 3.21476 1.56998
120 1 12.4061 13.5738 10.1924
121 1 14.0948 6.56232 13.8874
122 1 11.4172 0.689063 2.37021
123 1 1.65778 1.52802 1.12949
124 1 7.74882 0.714644 6.86752
125 1 13.0368 10.8806 0.0461404
126 1 14.1536 3.59273 10.8941
127 1 12.9937 3.74289 4.44237
128 1 4.93288 10.2326 0.481908
129 2 4.52916 4.87676 12.9369
130 2 4.69703 5.06241 14.547
131 2 14.6886 4.58995 14.3163
132 2 0.0945933 3.63697 13.6264
133 2 7.74221 10.0755 4.24889
134 2 8.99342 10.7228 3.34745
135 2 0.788771 4.72927 4.53377
136 2 1.81069 3.95163 3.77685
137 2 14.4008 11.9252 10.4575
138 2 13.9069 10.7269 11.3647
139 2 10.6725 0.201823 0.765773
140 2 9.47367 0.652849 -0.0632908
141 2 13.5922 9.97565 6.76473
142 2 13.2152 10.5455 5.32572
143 2 3.67781 14.0964 8.7488
144 2 3.53939 14.3835 7.27865
145 2 3.09567 5.45978 2.78243
146 2 3.60518 6.19337 4.09913
147 2 5.08995 9.05489 1.76222
148 2 4.54185 7.79795 2.5309
149 2 13.4381 6.67871 2.59019
150 2 14.7355 6.25337 1.79471
151 2 0.77524 9.18308 14.2443
152 2 0.388115 10.6288 14.9234
153 2 14.1894 4.91997 4.56536
154 2 14.9228 6.4107 4.60147
155 2 10.8762 5.93786 7.61697
156 2 9.58879 6.53361 7.20672
157 2 12.1014 7.06547 4.8105
158 2 11.5829 7.27566 3.48345
159 2 9.70669 3.06202 7.62541
160 2 9.96186 3.35305 6.0781
161 2 3.89127 3.51534 11.556
162 2 5.31618 3.63484 11.0911
163 2 8.36256 9.80951 10.99
164 2 7.91946 11.2623 11.3115
165 2 7.80256 2.56448 14.9346
166 2 7.58248 1.21916 14.1315
167 2 6.10462 13.5421 -0.242407
168 2 4.85977 13.825 0.528199
169 2 14.4101 13.8153 10.1623
170 2 -0.0704958 13.4422 11.1966
171 2 11.7088 2.1063 6.54679
172 2 12.6961 1.18401 5.89058
173 2 10.9921 7.5299 13.3514
174 2 11.2636 8.01166 14.7268
175 2 1.57728 7.89927 5.7134
176 2 1.87051 8.36741 7.16573
177 2 11.4302 9.71213 6.20698
178 2 10.3486 10.1292 5.1128
179 2 14.4149 8.445 5.04536
180 2 0.00164071 8.8165 4.03796
181 2 1.02838 11.8189 4.67407
182 2 2.36173 10.8675 4.79517
183 2 6.32838 0.734699 10.265
184 2 5.21972 -0.301306 10.6492
185 2 12.568 9.37229 0.310345
186 2 12.8634 7.95827 0.824663
187 2 2.56428 7.41349 12.0109
188 2 3.14156 6.4193 13.0935
189 2 3.16723 6.41343 5.9805
190 2 3.10221 4.98312 5.63197
191 2 7.73547 13.1577 8.33842
192 2 8.06104 12.6116 6.87934
193 2 1.75422 3.38105 1.7562
194 2 3.25148 3.1727 2.47226
195 2 3.15037 12.6412 14.9757
196 2 3.16776 12.9566 0.983888
197 2 0.0720948 5.37286 6.52711
198 2 -0.245356 6.34024 7.61737
199 2 11.6512 14.8569 8.35832
200 2 11.802 13.9131 7.23812
201 2 2.07792 14.3411 2.56175
202 2 1.50629 0.044002 2.08403
203 2 6.3968 14.9261 13.4491
204 2 6.20534 0.425411 12.4267
205 2 0.660795 9.1318 1.85703
206 2 0.694078 10.391 2.87312
207 2 12.3708 14.0972 13.0916
208 2 12.1841 12.5232 13.366
209 2 2.09163 12.5603 7.87369
210 2 0.901668 12.2269 8.80367
211 2 13.6981 0.109016 0.335681
212 2 13.4443 14.3386 15.279
213 2 14.5376 15.2076 4.93591
214 2 0.228484 14.9795 4.13145
215 2 9.24837 13.4527 11.622
216 2 9.52013 12.2417 12.5392
217 2 12.875 7.30125 7.44426
218 2 13.1287 6.09272 6.70831
219 2 8.70364 11.2231 8.31889
220 2 9.67729 10.2938 7.51515
221 2 10.4955 10.2933 12.7118
222 2 10.0325 10.7711 14.1408
223 2 9.87115 13.0955 5.5737
224 2 8.95145 12.0108 4.93614
225 2 4.74251 0.928236 14.2575
226 2 3.48888 1.81195 13.8977
227 2 7.56401 13.1017 13.1985
228 2 6.02622 12.6782 13.2435
229 2 3.65548 5.64787 8.88705
230 2 4.53028 5.65688 10.1121
231 2 10.7483 -0.0654962 13.7661
232 2 11.7812 0.808853 13.0779
233 2 8.36482 -0.291862 3.46612
234 2 8.34757 14.0066 4.25098
235 2 5.1094 1.81781 2.95108
236 2 4.6411 2.96006 4.03817
237 2 12.5339 11.0417 9.22128
238 2 11.1841 11.2095 8.49369
239 2 8.60742 10.312 0.576946
240 2 8.69537 11.7883 0.0583599
241 2 1.42282 1.68337 7.50469
242 2 1.60998 2.65673 8.73322
243 2 8.87953 5.11923 12.1645
244 2 8.03029 6.40716 12.1505
245 2 1.95332 8.95172 9.16853
246 2 1.28006 10.1574 8.3047
247 2 11.2632 11.2403 2.79611
248 2 10.7957 9.70539 2.72449
249 2 11.5653 5.40273 -0.288322
250 2 11.1896 4.32648 14.2564
251 2 10.4204 6.65681 9.62663
252 2 10.2607 6.46258 11.0571
253 2 5.87632 10.1769 10.5904
254 2 4.94364 10.8143 9.46912
255 2 7.91802 7.6928 0.604333
256 2 7.17835 8.74025 1.63464
257 2 14.2008 7.92642 9.35992
258 2 -0.267797 8.44072 8.55252
259 2 6.16366 14.3915 3.8125
260 2 4.75946 14.0077 3.26281
261 2 6.35085 1.60272 6.90857
262 2 4.84301 1.75402 6.76165
263 2 1.34137 0.662419 9.62968
264 2 0.817817 14.7755 10.0578
265 2 10.8342 13.0339 1.10914
266 2 12.2496 13.5788 1.43103
267 2 7.99168 4.93257 10.0429
268 2 8.59208 4.87508 8.55834
269 2 -0.0863874 13.5026 5.64494
270 2 0.00602987 12.1735 6.56287
271 2 6.0476 11.6847 7.84187
272 2 4.65027 12.2574 7.8746
273 2 -0.10786 7.21382 14.4417
274 2 1.40859 7.20909 13.8607
275 2 1.10879 5.19843 12.1297
276 2 0.142322 4.18446 11.4107
277 2 0.192301 0.569522 11.8253
278 2 0.262058 0.216297 13.3227
279 2 13.325 12.966 5.76917
280 2 12.474 12.1815 6.79075
281 2 6.96454 1.33987 0.72514
282 2 6.22808 -0.0168944 1.14781
283 2 5.28424 6.95392 7.95734
284 2 5.69738 8.44349 7.79401
285 2 4.59695 2.96295 -0.156096
286 2 4.05776 3.8329 1.0606
287 2 14.2623 2.20361 0.861912
288 2 14.7961 2.02476 15.1013
289 2 7.90736 0.984376 2.41964
290 2 8.42535 2.08554 3.23522
291 2 9.33834 3.30929 9.83257
292 2 10.1754 1.88055 10.1119
293 2 1.75381 4.52695 9.90946
294 2 1.11552 4.78978 8.54253
295 2 12.2645 0.0873025 4.07993
296 2 12.0334 14.6435 5.15054
297 2 9.97133 5.30379 5.02216
298 2 9.51596 4.30903 3.95105
299 2 9.11176 6.41377 14.7882
300 2 7.57568 6.54 14.599
301 2 2.07189 2.92609 11.9449
302 2 2.69894 1.52435 11.845
303 2 10.8501 14.3815 10.4642
304 2 10.5118 -0.206863 11.478
305 2 0.274248 12.7719 0.61942
306 2 0.108425 11.2293 1.22179
307 2 9.70727 2.84376 13.3266
308 2 10.3129 3.49932 12.1129
309 2 7.16744 3.93944 3.6373
310 2 7.68964 3.77425 2.12389
311 2 2.7812 12.2345 3.34142
312 2 4.17512 12.108 2.65722
313 2 13.4252 2.63657 7.76521
314 2 14.4885 3.85196 7.85505
315 2 1.16553 7.50623 0.684607
316 2 1.80702 6.9489 2.01705
317 2 14.4305 9.58843 13.243
318 2 13.0187 10.0336 13.4694
319 2 5.70123 2.57075 8.68482
320 2 6.80813 3.05178 9.52933
321 2 5.35787 4.80808 5.12533
322 2 5.96938 3.53575 5.71789
323 2 13.0854 2.74416 13.3668
324 2 13.871 1.59988 12.7008
325 2 8.54415 7.16809 5.28465
326 2 9.76316 8.11779 5.62097
327 2 3.5805 7.58031 10.0651
328 2 3.76188 9.05652 10.3377
329 2 4.55808 11.8882 11.3243
330 2 3.56374 12.075 12.5347
331 2 0.334551 11.7965 12.6005
332 2 0.24849 12.8839 13.5924
333 2 6.35726 8.22802 5.65351
334 2 6.38531 8.12785 4.02112
335 2 10.214 9.5859 10.0692
336 2 10.6644 8.57403 11.1276
337 2 8.95214 14.8857 9.64428
338 2 7.3584 14.7538 9.70982
339 2 0.591563 15.0693 0.0182509
340 2 1.70203 14.3696 14.7724
341 2 6.4741 3.89198 0.306924
342 2 7.8908 4.74294 0.474307
343 2 13.7745 5.25403 11.174
344 2 12.6407 6.3597 11.1641
345 2 6.61181 10.3071 13.1711
346 2 7.38294 10.2018 14.4287
347 2 5.92965 6.53312 13.3142
348 2 6.65131 8.00804 13.4902
349 2 4.1508 10.9057 6.58172
350 2 3.72612 9.43762 6.27968
351 2 0.960879 1.05271 5.33877
352 2 1.48012 2.49213 5.40543
353 2 8.71011 13.4532 1.93204
354 2 8.99593 13.78 0.520382
355 2 3.28533 0.709593 5.89467
356 2 4.52263 -0.105961 5.1872
357 2 10.8957 8.12501 1.5533
358 2 9.392 8.09909 2.00114
359 2 2.85608 14.8006 10.6062
360 2 3.90293 13.7417 11.0449
361 2 6.48734 12.6937 1.54518
362 2 7.04029 11.6822 2.67807
363 2 2.24681 10.7375 14.3261
364 2 3.668 10.6767 14.8241
365 2 12.3482 3.69431 0.972113
366 2 13.2921 3.83378 2.19605
367 2 12.5073 12.8061 9.60602
368 2 12.5354 13.311 11.1419
369 2 13.9506 6.55755 12.8999
370 2 13.4462 7.1125 14.3857
371 2 11.8334 1.45816 2.05064
372 2 10.4376 0.894116 2.52875
373 2 0.844146 1.54638 0.605455
374 2 2.39804 1.38307 0.478242
375 2 7.77884 0.12269 7.66547
376 2 8.60235 1.23456 6.91956
377 2 12.4122 11.5105 0.551261
378 2 13.9301 11.2794 0.187093
379 2 13.8259 3.47873 9.96028
380 2 13.5184 3.1733 11.5056
381 2 12.9666 3.11167 5.2382
382 2 12.0906 4.05916 4.29522
383 2 5.48443 10.7696 1.07083
384 2 5.47524 10.05 -0.286949
ITEM: TIMESTEP
200
ITEM: NUMBER OF ATOMS
384
ITEM: BOX BOUNDS pp pp pp
-2.2989006347002316e-01 1.5229890063470055e+01
-2.0075667969305755e-01 1.5200756679693095e+01
-2.0224793522469486e-01 1.5202247935224751e+01
ITEM: ATOMS id type x y z
1 1 4.53988 5.60565 13.1324
2 1 14.4835 3.85172 14.0396
3 1 7.70497 10.6339 3.70605
4 1 1.66164 3.87469 4.6285
5 1 13.7109 10.0543 10.274
6 1 9.9329 0.162327 -0.116379
7 1 13.3552 9.6127 6.08521
8 1 3.48629 13.3407 7.6887
9 1 3.25692 6.44497 2.81549
10 1 5.37027 8.01157 2.46441
11 1 13.8207 6.50198 1.86615
12 1 0.498142 10.1219 13.6266
13 1 14.879 5.38416 4.81297
14 1 9.8885 5.99538 7.80198
15 1 12.1959 7.02328 3.9577
16 1 9.94191 2.88336 6.87774
17 1 4.66435 3.90409 11.2643
18 1 7.39942 10.4601 11.1873
19 1 8.34337 1.94809 14.4137
20 1 5.81345 13.7498 0.492062
21 1 -0.166535 13.2012 9.82928
22 1 12.5145 1.95879 6.0295
23 1 10.7455 7.03003 14.0402
24 1 1.95937 7.79575 6.18929
25 1 10.6227 9.22645 5.73885
26 1 15.1925 8.11651 4.63297
27 1 1.73859 11.3346 4.3848
28 1 6.01596 0.376668 10.6252
29 1 12.2285 8.03974 0.257763
30 1 2.15223 6.52203 12.3265
31 1 3.65255 5.58253 5.31129
32 1 7.70671 12.0032 7.86828
33 1 2.89717 3.65529 2.09424
34 1 2.97276 13.328 0.168824
35 1 -0.1982 5.4208 7.55122
36 1 10.7466 14.6441 7.45531
37 1 1.30184 14.5614 2.5641
38 1 6.02887 0.462896 13.383
39 1 0.552615 9.92372 2.63512
40 1 12.3027 13.0203 12.617
41 1 0.991816 12.12 8.00789
42 1 13.7937 14.1801 0.214282
43 1 -0.102871 15.0665 4.6267
44 1 8.58204 12.7296 11.7587
45 1 12.4363 6.29939 6.69808
46 1 9.7792 10.312 8.15965
47 1 10.4859 10.895 12.8707
48 1 8.87359 12.4104 5.24882
49 1 3.82047 1.60877 14.3458
50 1 6.44572 13.223 13.4456
51 1 3.98475 5.97743 9.13242
52 1 11.2332 -0.0155537 12.9404
53 1 7.58265 14.1272 3.47314
54 1 4.5423 2.13196 3.35079
55 1 12.1999 11.2506 8.45144
56 1 8.77748 10.2563 -0.187935
57 1 1.69203 1.83236 8.42531
58 1 8.46357 5.59486 11.6206
59 1 1.21106 9.1018 8.3682
60 1 10.5062 10.4728 3.26424
61 1 11.623 4.29957 14.8012
62 1 10.6593 6.85093 10.5483
63 1 4.93106 10.1216 9.98121
64 1 7.98212 8.05761 1.32028
65 1 14.2807 7.75011 8.50132
66 1 4.94864 14.7555 3.66281
67 1 5.67437 1.86353 6.79644
68 1 1.46162 0.348931 10.477
69 1 11.469 12.4351 1.49316
70 1 8.18055 4.24452 9.33956
71 1 15.2195 12.5948 5.66212
72 1 5.03944 11.2348 7.60967
73 1 0.850602 7.50852 14.3356
74 1 1.07558 4.28083 11.8875
75 1 -0.128777 0.723252 12.7949
76 1 12.4589 12.359 6.16089
77 1 6.40026 0.984607 1.30377
78 1 5.55615 8.08873 7.16861
79 1 4.55147 3.98469 -0.153658
80 1 14.7355 1.66552 0.208925
81 1 8.64506 1.21815 2.81165
82 1 10.0871 2.63475 10.312
83 1 1.79616 4.34004 8.77505
84 1 12.7046 15.0717 4.12989
85 1 10.1497 4.79409 4.9329
86 1 8.36564 6.25272 14.9894
87 1 2.70772 2.35048 12.1328
88 1 9.99703 14.6773 10.7643
89 1 -0.215519 11.3041 0.530476
90 1 9.66156 3.55508 12.7304
91 1 8.05205 3.82744 3.58937
92 1 3.2371 12.6049 2.71106
93 1 13.4932 3.51178 8.10046
94 1 0.816442 7.52956 1.74765
95 1 13.3434 9.80699 12.7266
96 1 6.12485 2.73742 9.19208
97 1 5.76446 3.79857 5.06552
98 1 13.0512 1.89892 12.7232
99 1 9.04165 7.10241 5.45844
100 1 2.97961 8.18054 10.2428
101 1 4.56988 12.0847 12.0314
102 1 0.472821 12.6156 12.3254
103 1 6.78888 8.43417 4.74881
104 1 9.84769 9.55872 10.8303
105 1 7.87746 14.5947 9.02583
106 1 0.708136 14.3507 14.4967
107 1 7.43654 3.93359 0.750802
108 1 13.3962 6.69372 10.9628
109 1 6.782 9.47418 13.6354
110 1 6.88055 6.89291 13.1088
111 1 3.55092 9.99968 5.7245
112 1 1.60725 1.21414 5.75126
113 1 9.00727 13.1295 0.954665
114 1 3.83406 0.00797973 6.10791
115 1 10.466 8.18168 2.24498
116 1 3.92368 14.1716 10.3644
117 1 5.63396 11.6078 2.1897
118 1 3.09409 11.0676 14.0559
119 1 12.4909 2.96814 1.59013
120 1 12.5638 13.4343 10.0294
121 1 13.786 6.42064 13.7584
122 1 11.3453 0.776558 2.13636
123 1 1.75371 1.23047 1.11746
124 1 8.07768 0.724612 6.62727
125 1 12.667 10.5196 -0.189167
126 1 13.9649 3.87756 10.7621
127 1 12.6519 4.00478 4.10133
128 1 4.89994 9.67379 0.267984
129 2 4.7036 5.21339 12.264
130 2 4.46059 5.1109 13.9602
131 2 14.1215 4.76012 14.0576
132 2 15.208 3.76683 13.299
133 2 7.13303 9.70236 4.02707
134 2 8.55581 10.468 3.63981
135 2 0.878996 4.50071 4.52659
136 2 1.82071 3.79082 3.65172
137 2 14.6186 10.5573 10.3137
138 2 13.3979 9.73 11.3309
139 2 10.3541 0.272258 0.788587
140 2 9.21105 0.853036 15.0805
141 2 13.6057 9.25984 7.01658
142 2 12.9179 10.5319 6.00611
143 2 3.56272 13.8594 8.53887
144 2 3.67984 14.0152 7.03172
145 2 3.27366 5.63345 2.10529
146 2 3.22862 5.79585 3.70837
147 2 5.06203 8.55901 1.74868
148 2 4.50948 7.38462 2.40987
149 2 13.3196 6.40564 2.76046
150 2 14.6823 7.14066 2.04102
151 2 0.712428 9.08508 13.6234
152 2 0.568122 10.4903 14.5388
153 2 14.1848 4.76097 4.35486
154 2 14.9359 6.49041 4.62386
155 2 10.772 6.11849 7.29061
156 2 9.36049 6.60774 7.1886
157 2 12.2742 6.9846 4.98217
158 2 11.4112 7.61278 3.67486
159 2 9.98539 3.0634 7.81469
160 2 10.0719 3.67307 6.34727
161 2 4.06234 3.21889 11.6106
162 2 5.35422 3.43836 10.5494
163 2 8.17706 9.83491 11.0392
164 2 7.77522 11.4696 11.1898
165 2 8.2167 2.7257 15.0084
166 2 7.32716 1.85808 13.7902
167 2 6.3531 13.2634 -0.199084
168 2 4.90805 13.8557 0.266255
169 2 14.4517 13.3373 9.74216
170 2 0.0470186 12.8921 10.8937
171 2 11.5063 2.05108 6.18854
172 2 12.7269 1.27425 5.38607
173 2 10.897 7.10153 12.9739
174 2 11.4442 7.3335 14.631
175 2 1.19638 7.89227 5.66327
176 2 1.54665 8.11933 7.18564
177 2 11.5059 8.88733 5.90552
178 2 10.4093 9.87257 4.80547
179 2 14.5662 8.73065 5.0741
180 2 -0.0351626 8.72901 3.84123
181 2 1.31008 11.8319 4.93277
182 2 2.42936 10.8008 4.84826
183 2 6.06404 1.03086 10.0447
184 2 5.26755 -0.0804646 10.697
185 2 12.6777 8.82362 0.0037089
186 2 13.0573 7.22891 0.748457
187 2 2.41046 7.23421 11.5697
188 2 3.13937 6.48839 12.7854
189 2 3.15313 6.44767 5.73755
190 2 3.0022 4.97348 5.15255
191 2 7.8729 12.9033 8.14485
192 2 8.15475 12.2731 6.98853
193 2 2.51575 2.93939 1.73383
194 2 3.54864 3.29649 2.65031
195 2 2.82939 12.429 15.0427
196 2 2.9464 13.2007 1.16077
197 2 -0.208924 5.33162 6.53721
198 2 15.0948 6.44251 8.06581
199 2 11.4536 -0.116582 7.6838
200 2 11.3308 14.0851 7.1262
201 2 2.26598 14.1126 2.77032
202 2 1.3864 -0.0467615 1.95243
203 2 6.08225 14.9053 13.4813
204 2 6.05914 0.542074 12.3379
205 2 1.23358 9.29775 2.28239
206 2 1.00642 10.4274 3.28741
207 2 11.8362 13.8826 12.7163
208 2 11.7919 12.2653 12.7905
209 2 1.91808 12.7421 8.13234
210 2 0.420014 12.6571 8.69225
211 2 13.7453 15.0885 0.339081
212 2 13.5138 13.8038 14.7812
213 2 14.4994 15.1816 4.08079
214 2 0.547543 14.9671 3.91472
215 2 8.96112 13.4755 11.1753
216 2 9.25489 12.4274 12.181
217 2 12.9734 6.71241 7.44198
218 2 13.023 5.53114 6.71769
219 2 8.92943 10.8482 8.16566
220 2 9.94368 9.8565 7.36564
221 2 10.4853 10.335 12.2765
222 2 10.225 10.8003 13.7772
223 2 9.75638 12.1915 5.01128
224 2 8.13497 11.5836 5.00352
225 2 4.80128 1.20414 14.0464
226 2 3.25357 1.83148 13.5397
227 2 7.28715 13.013 12.9866
228 2 5.82488 12.3757 13.2689
229 2 3.17981 5.5402 9.03351
230 2 4.37354 5.3113 9.96455
231 2 10.9698 0.129713 13.8288
232 2 11.8897 0.839737 12.8249
233 2 7.72633 15.0921 3.56603
234 2 8.19627 13.6048 4.10271
235 2 5.01402 1.29731 2.87702
236 2 5.04474 2.55501 4.07621
237 2 12.4105 10.6248 9.27197
238 2 11.5217 10.6853 8.09073
239 2 8.35943 9.48618 0.614243
240 2 8.64278 11.0925 0.340522
241 2 1.57843 1.49167 7.57647
242 2 1.94349 2.71235 8.59317
243 2 8.99352 4.97405 12.0451
244 2 7.81279 6.13578 12.2431
245 2 1.98538 8.92041 9.03677
246 2 1.32848 10.0119 8.34212
247 2 10.9361 11.2694 2.86391
248 2 10.5264 9.52932 2.8906
249 2 11.2406 5.16776 14.9996
250 2 11.0305 3.88787 14.1822
251 2 10.5973 6.32713 9.6623
252 2 9.78512 6.50032 10.9115
253 2 5.77741 10.2017 10.4325
254 2 4.83121 10.7301 9.22549
255 2 7.91058 7.18414 0.721708
256 2 7.09788 7.86876 1.67792
257 2 13.9311 7.46074 9.30168
258 2 14.9756 8.47464 8.70976
259 2 5.95215 14.6522 3.84651
260 2 4.614 13.9038 3.40587
261 2 6.59044 1.41662 6.65314
262 2 5.12677 1.19909 6.66058
263 2 1.35648 0.826349 9.68101
264 2 0.715698 15.0395 10.5044
265 2 10.44 12.7423 1.24459
266 2 12.1529 13.1327 1.66848
267 2 8.21181 4.71689 10.1462
268 2 8.53751 4.75571 8.70414
269 2 -0.0864452 13.404 5.25581
270 2 0.166883 12.3558 6.54262
271 2 5.96588 11.5426 7.48752
272 2 4.57487 12.1432 7.52378
273 2 -0.0367788 7.19156 14.5739
274 2 1.09672 7.04924 13.6187
275 2 1.51584 5.31959 11.9095
276 2 0.235372 4.33935 11.3652
277 2 0.403329 0.891994 12.0911
278 2 0.429671 0.420707 13.573
279 2 13.3892 12.4699 5.90917
280 2 12.4495 12.1125 7.15518
281 2 6.33665 1.32055 0.415297
282 2 6.09184 0.058018 1.23745
283 2 5.54387 7.27964 7.57231
284 2 5.38698 8.7635 7.76728
285 2 4.48693 2.9722 14.8681
286 2 4.03382 3.93682 0.710889
287 2 14.1294 2.2197 0.741017
288 2 14.7671 2.49813 14.8407
289 2 7.85363 1.26171 2.09615
290 2 8.47504 1.9375 3.36947
291 2 9.40277 3.27039 9.74427
292 2 10.4689 1.75246 10.0179
293 2 1.4383 4.25935 9.75939
294 2 1.10815 4.95276 8.30167
295 2 11.8473 0.068657 3.24052
296 2 12.4435 14.174 4.52666
297 2 9.85282 5.81584 5.0595
298 2 9.59176 4.44479 4.25688
299 2 9.19553 6.54754 14.6907
300 2 7.67822 6.3563 14.2778
301 2 2.0511 3.05059 12.1664
302 2 2.54767 1.58075 11.567
303 2 10.6133 14.3506 10.2216
304 2 10.4587 15.1788 11.6162
305 2 15.1368 12.2806 0.789428
306 2 0.180333 10.9323 1.38633
307 2 9.21419 2.77452 13.3635
308 2 10.1749 3.05766 12.116
309 2 7.02933 4.0212 4.20174
310 2 7.78493 4.01052 2.65586
311 2 2.67983 12.0673 3.27617
312 2 4.19839 12.0037 2.76899
313 2 13.1378 2.76134 7.38374
314 2 14.2895 3.88347 7.79072
315 2 0.917629 7.51435 0.913508
316 2 1.68752 7.00711 2.10329
317 2 14.2888 9.93096 12.9863
318 2 12.8697 10.2278 13.5059
319 2 5.88061 2.4848 8.27668
320 2 6.9579 3.17597 8.9718
321 2 5.0884 4.49379 5.01186
322 2 5.82649 3.11365 5.88913
323 2 13.1253 2.49822 13.4433
324 2 13.9193 1.61443 12.9014
325 2 8.22514 7.32752 5.01379
326 2 9.65636 7.87983 5.62609
327 2 3.41555 7.50391 9.69262
328 2 3.84965 8.86823 10.4581
329 2 4.64255 11.4216 11.3393
330 2 3.91315 11.7456 12.8676
331 2 0.198276 11.669 12.5615
332 2 0.397164 13.3252 13.0681
333 2 6.30833 8.41747 5.65332
334 2 6.18903 8.33435 4.06325
335 2 9.86756 9.99965 10.0256
336 2 10.0916 8.5871 10.6936
337 2 8.69703 14.8764 9.48329
338 2 7.1556 14.7236 9.65631
339 2 -0.153114 14.4129 -0.200803
340 2 1.51547 13.9666 15.0318
341 2 6.44805 4.07635 0.434449
342 2 7.7339 4.86055 0.488736
343 2 13.4951 5.63698 10.7365
344 2 12.4756 7.03631 11.0049
345 2 6.86596 10.0556 12.7666
346 2 7.70561 9.52114 14.0901
347 2 6.09518 6.3824 13.0942
348 2 6.77394 7.98031 13.3468
349 2 3.92733 10.4315 6.47729
350 2 3.08067 9.11861 5.87327
351 2 0.885681 0.451761 5.49929
352 2 1.56594 1.91371 5.10644
353 2 8.57867 13.2498 1.83851
354 2 9.32132 14.2394 0.641486
355 2 3.08166 0.521353 5.77933
356 2 4.25056 15.0769 5.21339
357 2 11.0178 7.96851 1.45211
358 2 9.53956 8.0421 2.04605
359 2 3.03123 14.7585 10.3868
360 2 3.84993 13.4416 10.9267
361 2 5.87726 12.5985 1.88109
362 2 6.31892 11.4481 2.78672
363 2 2.23953 10.5735 13.7101
364 2 3.80184 10.5802 14.5756
365 2 11.9605 3.57654 0.900952
366 2 12.7135 3.42743 2.46869
367 2 12.3729 12.6266 9.47423
368 2 12.6215 13.267 11.0933
369 2 13.6514 6.66588 12.7859
370 2 13.0446 6.63108 14.1834
371 2 11.8712 1.65826 1.96685
372 2 10.4578 0.932123 2.39215
373 2 0.877246 1.52129 0.777543
374 2 2.30127 1.18372 0.227752
375 2 8.04691 0.200727 7.41307
376 2 8.81972 1.5189 6.66941
377 2 12.181 11.3073 0.315546
378 2 13.7107 11.0118 -0.0641192
379 2 14.0431 3.83846 9.81158
380 2 13.4368 3.03486 11.1522
381 2 12.7262 3.16957 4.7624
382 2 11.7704 4.52932 4.21969
383 2 5.39266 10.4812 0.625653
384 2 5.3012 9.22358 14.926
ITEM: TIMESTEP
400
ITEM: NUMBER OF ATOMS
384
ITEM: BOX BOUNDS pp pp pp
-1.7792508045011868e-01 1.5177925080450148e+01
-7.2874872329593998e-02 1.5072874872329617e+01
-1.0143935956222627e-01 1.5101439359562306e+01
ITEM: ATOMS id type x y z
1 1 4.42471 5.48386 12.6782
2 1 14.8573 3.54056 14.0738
3 1 7.24102 10.4732 3.56579
4 1 1.72768 3.46836 4.33732
5 1 13.7123 9.77324 10.0812
6 1 9.44178 -0.0536088 14.9268
7 1 13.3964 9.25623 6.45265
8 1 3.46726 13.0696 7.94293
9 1 3.46432 6.04179 2.46601
10 1 5.5912 7.51594 2.02497
11 1 14.0895 6.83074 2.05683
12 1 0.62862 10.066 13.6877
13 1 -0.0860141 5.25818 4.74375
14 1 9.6085 6.37933 8.17213
15 1 12.2697 6.60194 4.34281
16 1 10.2792 2.84802 6.83815
17 1 4.56272 3.95953 10.6949
18 1 7.04919 10.4173 11.037
19 1 7.94675 2.01066 14.3876
20 1 5.8126 13.3495 0.606341
21 1 -0.0367063 13.2291 9.74904
22 1 12.0515 1.98403 5.26824
23 1 10.7686 6.46124 13.4875
24 1 1.92845 7.79847 6.2343
25 1 10.6689 9.10076 5.75081
26 1 15.0078 7.9969 4.75155
27 1 1.6458 11.1944 4.35585
28 1 5.90382 0.597873 10.5342
29 1 12.1351 7.71058 0.277437
30 1 2.05772 6.63164 12.0498
31 1 3.39249 5.58041 5.18253
32 1 7.65758 12.0302 7.82701
33 1 3.31922 3.46467 1.77554
34 1 3.14483 13.0082 0.202554
35 1 -0.11261 4.98454 7.29874
36 1 10.7469 14.5374 7.43468
37 1 1.12872 14.3393 2.04331
38 1 6.01482 0.779039 13.194
39 1 0.376454 9.68442 2.64578
40 1 12.2842 13.0761 12.7634
41 1 1.29255 11.8533 8.10605
42 1 13.3526 13.685 0.0464045
43 1 15.1488 14.8944 4.27579
44 1 8.77606 12.7903 11.8858
45 1 12.0116 5.98261 7.15085
46 1 9.84602 10.237 7.95824
47 1 10.4198 10.8024 12.674
48 1 8.50729 12.1426 5.37525
49 1 3.74451 1.70204 14.1897
50 1 6.39081 13.2624 13.1865
51 1 4.07784 6.04306 8.51531
52 1 11.2178 0.277961 12.5141
53 1 7.40668 13.8007 3.5965
54 1 4.58006 1.94644 3.44767
55 1 12.1352 11.2779 8.66786
56 1 9.01333 10.174 -0.0507852
57 1 2.2056 1.51676 8.27811
58 1 8.67782 5.25248 11.6296
59 1 0.958187 9.18708 8.51374
60 1 10.0281 10.4049 3.50541
61 1 11.8184 3.93882 14.0726
62 1 10.2998 6.91237 10.51
63 1 4.77461 9.89782 9.59534
64 1 8.29036 7.89424 1.55349
65 1 14.3557 7.5534 7.99071
66 1 4.8074 14.4897 3.56015
67 1 5.75043 1.65428 6.55165
68 1 1.685 0.198844 10.3608
69 1 11.4135 12.4897 1.69585
70 1 8.38103 3.97937 9.1821
71 1 -0.176534 12.4624 5.71114
72 1 5.24938 11.0463 7.27302
73 1 0.728113 7.53169 14.2601
74 1 0.588252 4.25651 11.6053
75 1 -0.0171316 1.12073 12.4452
76 1 12.3955 12.3994 6.09831
77 1 6.28319 0.709944 1.42083
78 1 5.84169 7.95602 7.38256
79 1 4.86966 4.09952 14.9208
80 1 14.453 1.22964 0.417995
81 1 8.3513 1.05404 2.82982
82 1 10.1689 2.14051 10.3897
83 1 1.82299 4.21799 8.8771
84 1 12.363 14.8705 3.95246
85 1 9.93313 4.70195 5.00753
86 1 8.23304 5.76252 14.9221
87 1 2.61048 2.29381 11.5045
88 1 10.2014 14.5973 10.3379
89 1 14.8293 11.2302 0.76907
90 1 9.67096 3.10866 12.7859
91 1 7.72448 3.493 3.64504
92 1 3.35333 12.4577 2.92315
93 1 13.0777 3.63613 7.69901
94 1 1.34423 7.65444 1.55915
95 1 13.3067 9.47522 12.6623
96 1 6.15072 2.84689 8.92576
97 1 5.83747 3.95495 5.28579
98 1 12.7477 2.3075 12.3094
99 1 8.73129 7.11348 5.84165
100 1 2.87622 7.99299 9.85643
101 1 4.35764 11.7566 11.7813
102 1 1.13403 12.1472 11.7435
103 1 6.37253 8.34754 4.73594
104 1 9.35334 9.3772 10.5687
105 1 7.91277 14.5225 8.71564
106 1 0.892096 13.9916 14.1418
107 1 7.04212 3.84434 1.21967
108 1 12.9359 6.66152 10.6114
109 1 6.9259 9.40774 13.5032
110 1 6.85147 6.75621 12.906
111 1 3.70618 9.67815 5.29814
112 1 1.46923 1.13378 5.72151
113 1 8.7227 12.7963 1.09483
114 1 3.62246 14.8644 6.14451
115 1 10.7268 8.02787 2.64701
116 1 3.88322 14.0756 10.2506
117 1 5.48642 11.1362 1.93341
118 1 3.18872 10.8773 14.0297
119 1 12.3956 2.80946 1.29351
120 1 12.6404 13.4755 10.0673
121 1 13.8631 6.63113 13.331
122 1 10.9203 0.726398 2.15415
123 1 1.81385 1.51332 0.911972
124 1 8.32879 0.870847 6.19151
125 1 12.3233 10.2824 0.0287687
126 1 13.4364 4.12011 10.6772
127 1 13.0993 4.16514 3.904
128 1 4.65188 9.35329 0.0722709
129 2 4.40731 4.807 11.9769
130 2 4.63971 4.88758 13.4886
131 2 14.6035 4.23596 14.5623
132 2 0.0266604 3.97382 13.4474
133 2 6.86641 9.58836 4.17735
134 2 8.17406 10.3708 3.24983
135 2 1.13088 4.12967 4.44488
136 2 2.12577 3.18895 3.37818
137 2 14.7034 9.85016 9.88782
138 2 13.6522 9.93456 11.1364
139 2 9.98006 0.194006 0.398196
140 2 8.66723 0.613913 14.833
141 2 13.6177 8.86702 7.22942
142 2 13.6346 10.1938 6.44103
143 2 3.51843 13.6694 8.7733
144 2 3.25282 13.634 7.24591
145 2 3.35461 5.10327 2.11076
146 2 3.47366 5.75958 3.4209
147 2 5.3102 8.18429 1.17749
148 2 4.87101 6.9957 2.29649
149 2 13.5785 7.05755 2.88917
150 2 15.1046 7.02622 2.04413
151 2 0.770077 8.98232 13.9882
152 2 0.0972931 10.5582 14.4561
153 2 14.3756 4.85324 4.46592
154 2 0.000497072 6.27857 4.64895
155 2 10.372 6.08116 7.59478
156 2 8.94428 6.79029 7.56808
157 2 12.0594 6.58604 5.4125
158 2 11.5882 7.10468 3.76445
159 2 10.4809 3.33396 7.5909
160 2 10.1405 3.54488 6.22208
161 2 3.75078 3.29123 10.8341
162 2 5.22822 3.60254 9.96335
163 2 7.84731 9.72951 10.9583
164 2 7.41567 11.3968 10.8787
165 2 7.78228 2.56427 -0.0718931
166 2 7.13466 1.56996 13.9399
167 2 6.04341 13.0905 14.8776
168 2 4.95645 12.95 0.354142
169 2 14.3377 13.4879 9.82133
170 2 0.191996 12.9738 10.7068
171 2 11.3902 2.11295 5.90733
172 2 12.2396 0.938228 5.10303
173 2 11.1341 6.28424 12.5271
174 2 11.4386 7.01861 13.9669
175 2 0.987265 7.82131 5.79332
176 2 1.74873 8.1965 7.13342
177 2 11.5593 9.16682 5.84832
178 2 10.4687 9.47459 4.74947
179 2 14.2777 8.37475 5.33299
180 2 -0.159924 8.51242 4.07465
181 2 1.13228 11.7407 5.07113
182 2 2.30093 10.759 4.99639
183 2 6.14488 1.28043 9.8332
184 2 5.20048 -0.024792 10.4838
185 2 12.2402 8.88428 0.292561
186 2 12.8975 7.31454 0.772533
187 2 2.44156 7.33197 11.5347
188 2 2.91034 6.23841 12.2531
189 2 2.94785 6.32917 5.55408
190 2 2.80255 4.70092 5.15524
191 2 7.50123 12.8712 8.23795
192 2 8.00809 12.1893 6.85621
193 2 2.61573 2.79931 1.44115
194 2 4.07343 2.8764 2.34611
195 2 3.13488 12.0451 14.7393
196 2 3.00305 12.854 1.10614
197 2 0.208458 5.12618 6.31423
198 2 15.0611 5.90648 7.53245
199 2 11.1876 15.0465 8.25884
200 2 11.4682 14.4991 6.70999
201 2 2.08881 13.9889 2.14813
202 2 1.50762 0.0545241 1.64237
203 2 6.20029 14.9147 13.345
204 2 6.16158 0.647254 12.0835
205 2 1.08037 9.08519 2.43745
206 2 1.09078 10.2837 3.36991
207 2 11.8973 13.9168 12.6281
208 2 11.5577 12.5057 12.6796
209 2 2.03523 12.3668 8.04589
210 2 0.642331 12.289 8.79918
211 2 13.7679 14.572 15.0769
212 2 12.6235 13.6341 14.4691
213 2 14.1127 14.9915 4.30547
214 2 0.242974 14.5865 3.46285
215 2 9.0725 13.3288 11.2063
216 2 9.41792 12.1047 12.0522