ITEM: TIMESTEP
0
ITEM: NUMBER OF ATOMS
384
ITEM: BOX BOUNDS pp pp pp
-3.1180958401302572e-01 1.5311809584013066e+01
-3.1180958401302572e-01 1.5311809584013066e+01
-3.1180958401302572e-01 1.5311809584013066e+01
ITEM: ATOMS id type x y z
1 1 4.57679 5.50123 13.6944
2 1 14.8875 3.66367 14.1079
3 1 8.20115 10.8513 3.91518
4 1 1.55859 4.11103 4.68534
5 1 14.0046 11.0534 10.4291
6 1 10.1562 -0.0244194 -0.0179537
7 1 13.1461 9.78511 5.92123
8 1 3.48566 13.6848 7.87681
9 1 3.32305 6.30373 3.20589
10 1 5.30735 8.37688 2.36991
11 1 13.7801 6.32188 1.70807
12 1 0.692367 10.1945 14.1186
13 1 15.0627 5.43363 4.6639
14 1 9.98456 5.97612 7.92121
15 1 12.4056 7.19481 3.96576
16 1 9.83562 2.64919 6.79506
17 1 4.60459 4.17249 11.4106
18 1 7.55062 10.3381 11.1669
19 1 8.27543 1.89543 14.4455
20 1 5.83253 14.0038 0.549654
21 1 -0.277952 13.5963 10.2649
22 1 12.6457 2.09652 6.28487
23 1 10.7129 7.40871 14.2399
24 1 2.2119 7.88472 6.40809
25 1 10.4542 9.69036 5.97773
26 1 -0.282536 8.22967 4.81222
27 1 1.6652 11.2607 4.20606
28 1 6.17365 -0.094545 10.725
29 1 12.1932 8.4542 0.381712
30 1 2.29814 6.67565 12.652
31 1 3.74006 5.65533 5.77839
32 1 7.64075 12.3667 7.75101
33 1 2.57949 3.81144 2.08856
34 1 3.31976 13.3432 0.0677147
35 1 -0.0967938 5.37115 7.46928
36 1 11.1426 14.5448 7.59235
37 1 1.26174 14.8074 2.57217
38 1 6.41618 0.335516 13.3898
39 1 0.207637 9.92258 2.18818
40 1 12.6731 13.1901 12.8323
41 1 1.29363 11.9761 7.9846
42 1 13.2286 14.8362 0.439531
43 1 -0.123887 15.1905 5.01064
44 1 8.80795 12.7708 12.0788
45 1 12.4172 6.75949 6.79319
46 1 9.49869 10.6014 8.40823
47 1 10.544 10.9934 13.3575
48 1 8.99001 12.8372 5.44675
49 1 4.04829 1.51716 14.6149
50 1 6.69928 13.1999 13.7041
51 1 4.43379 6.10378 9.26553
52 1 11.4216 -0.0969869 13.0672
53 1 8.10878 14.4288 3.40524
54 1 4.3962 2.37166 3.28729
55 1 12.1316 11.4523 8.45349
56 1 8.7458 10.8517 -0.213292
57 1 1.53862 1.7361 8.48855
58 1 8.69585 5.89847 11.616
59 1 1.22107 9.19196 8.49846
60 1 10.635 10.5731 3.14594
61 1 11.4957 4.51089 15.2148
62 1 10.9209 6.7156 10.446
63 1 4.94638 10.4223 10.3546
64 1 7.94749 8.55464 1.09697
65 1 14.5919 7.80968 8.4877
66 1 5.26248 14.7619 3.62401
67 1 5.62202 2.26942 6.97039
68 1 1.29568 -0.0251437 10.348
69 1 11.6689 12.7598 1.5126
70 1 8.10674 4.34492 9.29769
71 1 15.2574 12.5827 5.71394
72 1 5.13758 11.4238 7.95676
73 1 0.807368 7.59384 14.5622
74 1 1.07308 4.35508 11.6836
75 1 -0.103901 0.899318 12.6958
76 1 12.4336 12.7126 5.99741
77 1 6.5124 0.898083 1.44852
78 1 5.22926 7.74021 7.34722
79 1 4.69818 3.85809 0.25821
80 1 14.6318 1.53081 0.260033
81 1 8.7843 1.26425 2.88569
82 1 10.1715 2.86217 10.2074
83 1 1.97586 4.56417 8.94346
84 1 12.6683 15.2799 4.82665
85 1 10.1623 4.44247 4.67024
86 1 8.26116 6.29332 15.2182
87 1 2.75694 2.33071 12.3211
88 1 10.1168 15.0402 10.6766
89 1 0.0214213 11.8389 0.424274
90 1 9.92368 3.73613 12.9889
91 1 7.93039 3.8304 3.09944
92 1 3.45334 12.7245 2.72154
93 1 13.7442 3.34545 8.32257
94 1 1.06378 7.50528 1.70711
95 1 13.5608 9.51663 12.896
96 1 6.16563 2.34739 9.6158
97 1 6.00658 4.12469 4.96415
98 1 13.0409 2.11594 12.6389
99 1 9.44842 7.22402 5.61094
100 1 3.08802 8.31472 10.412
101 1 4.27645 12.564 12.0172
102 1 0.247817 12.7339 12.6695
103 1 6.92237 8.32243 4.80264
104 1 10.2096 9.4039 11.0142
105 1 8.10819 14.6608 9.11245
106 1 0.724807 14.5893 14.8093
107 1 7.38606 3.87893 0.612739
108 1 13.59 6.17467 11.3541
109 1 6.57455 9.82429 14.0409
110 1 6.72525 7.05567 13.1783
111 1 3.66994 10.3273 5.96103
112 1 1.66543 1.60839 5.77048
113 1 9.05834 13.0173 1.11863
114 1 4.11235 0.213829 6.02437
115 1 10.3679 8.11545 2.36753
116 1 3.8208 14.5044 10.4834
117 1 6.27696 11.8524 2.07137
118 1 3.1417 11.1769 14.1451
119 1 12.971 3.21476 1.56998
120 1 12.4061 13.5738 10.1924
121 1 14.0948 6.56232 13.8874
122 1 11.4172 0.689063 2.37021
123 1 1.65778 1.52802 1.12949
124 1 7.74882 0.714644 6.86752
125 1 13.0368 10.8806 0.0461404
126 1 14.1536 3.59273 10.8941
127 1 12.9937 3.74289 4.44237
128 1 4.93288 10.2326 0.481908
129 2 4.52916 4.87676 12.9369
130 2 4.69703 5.06241 14.547
131 2 14.6886 4.58995 14.3163
132 2 0.0945933 3.63697 13.6264
133 2 7.74221 10.0755 4.24889
134 2 8.99342 10.7228 3.34745
135 2 0.788771 4.72927 4.53377
136 2 1.81069 3.95163 3.77685
137 2 14.4008 11.9252 10.4575
138 2 13.9069 10.7269 11.3647
139 2 10.6725 0.201823 0.765773
140 2 9.47367 0.652849 -0.0632908
141 2 13.5922 9.97565 6.76473
142 2 13.2152 10.5455 5.32572
143 2 3.67781 14.0964 8.7488
144 2 3.53939 14.3835 7.27865
145 2 3.09567 5.45978 2.78243
146 2 3.60518 6.19337 4.09913
147 2 5.08995 9.05489 1.76222
148 2 4.54185 7.79795 2.5309
149 2 13.4381 6.67871 2.59019
150 2 14.7355 6.25337 1.79471
151 2 0.77524 9.18308 14.2443
152 2 0.388115 10.6288 14.9234
153 2 14.1894 4.91997 4.56536
154 2 14.9228 6.4107 4.60147
155 2 10.8762 5.93786 7.61697
156 2 9.58879 6.53361 7.20672
157 2 12.1014 7.06547 4.8105
158 2 11.5829 7.27566 3.48345
159 2 9.70669 3.06202 7.62541
160 2 9.96186 3.35305 6.0781
161 2 3.89127 3.51534 11.556
162 2 5.31618 3.63484 11.0911
163 2 8.36256 9.80951 10.99
164 2 7.91946 11.2623 11.3115
165 2 7.80256 2.56448 14.9346
166 2 7.58248 1.21916 14.1315
167 2 6.10462 13.5421 -0.242407
168 2 4.85977 13.825 0.528199
169 2 14.4101 13.8153 10.1623
170 2 -0.0704958 13.4422 11.1966
171 2 11.7088 2.1063 6.54679
172 2 12.6961 1.18401 5.89058
173 2 10.9921 7.5299 13.3514
174 2 11.2636 8.01166 14.7268
175 2 1.57728 7.89927 5.7134
176 2 1.87051 8.36741 7.16573
177 2 11.4302 9.71213 6.20698
178 2 10.3486 10.1292 5.1128
179 2 14.4149 8.445 5.04536
180 2 0.00164071 8.8165 4.03796
181 2 1.02838 11.8189 4.67407
182 2 2.36173 10.8675 4.79517
183 2 6.32838 0.734699 10.265
184 2 5.21972 -0.301306 10.6492
185 2 12.568 9.37229 0.310345
186 2 12.8634 7.95827 0.824663
187 2 2.56428 7.41349 12.0109
188 2 3.14156 6.4193 13.0935
189 2 3.16723 6.41343 5.9805
190 2 3.10221 4.98312 5.63197
191 2 7.73547 13.1577 8.33842
192 2 8.06104 12.6116 6.87934
193 2 1.75422 3.38105 1.7562
194 2 3.25148 3.1727 2.47226
195 2 3.15037 12.6412 14.9757
196 2 3.16776 12.9566 0.983888
197 2 0.0720948 5.37286 6.52711
198 2 -0.245356 6.34024 7.61737
199 2 11.6512 14.8569 8.35832
200 2 11.802 13.9131 7.23812
201 2 2.07792 14.3411 2.56175
202 2 1.50629 0.044002 2.08403
203 2 6.3968 14.9261 13.4491
204 2 6.20534 0.425411 12.4267
205 2 0.660795 9.1318 1.85703
206 2 0.694078 10.391 2.87312
207 2 12.3708 14.0972 13.0916
208 2 12.1841 12.5232 13.366
209 2 2.09163 12.5603 7.87369
210 2 0.901668 12.2269 8.80367
211 2 13.6981 0.109016 0.335681
212 2 13.4443 14.3386 15.279
213 2 14.5376 15.2076 4.93591
214 2 0.228484 14.9795 4.13145
215 2 9.24837 13.4527 11.622
216 2 9.52013 12.2417 12.5392
217 2 12.875 7.30125 7.44426
218 2 13.1287 6.09272 6.70831
219 2 8.70364 11.2231 8.31889
220 2 9.67729 10.2938 7.51515
221 2 10.4955 10.2933 12.7118
222 2 10.0325 10.7711 14.1408
223 2 9.87115 13.0955 5.5737
224 2 8.95145 12.0108 4.93614
225 2 4.74251 0.928236 14.2575
226 2 3.48888 1.81195 13.8977
227 2 7.56401 13.1017 13.1985
228 2 6.02622 12.6782 13.2435
229 2 3.65548 5.64787 8.88705
230 2 4.53028 5.65688 10.1121
231 2 10.7483 -0.0654962 13.7661
232 2 11.7812 0.808853 13.0779
233 2 8.36482 -0.291862 3.46612
234 2 8.34757 14.0066 4.25098
235 2 5.1094 1.81781 2.95108
236 2 4.6411 2.96006 4.03817
237 2 12.5339 11.0417 9.22128
238 2 11.1841 11.2095 8.49369
239 2 8.60742 10.312 0.576946
240 2 8.69537 11.7883 0.0583599
241 2 1.42282 1.68337 7.50469
242 2 1.60998 2.65673 8.73322
243 2 8.87953 5.11923 12.1645
244 2 8.03029 6.40716 12.1505
245 2 1.95332 8.95172 9.16853
246 2 1.28006 10.1574 8.3047
247 2 11.2632 11.2403 2.79611
248 2 10.7957 9.70539 2.72449
249 2 11.5653 5.40273 -0.288322
250 2 11.1896 4.32648 14.2564
251 2 10.4204 6.65681 9.62663
252 2 10.2607 6.46258 11.0571
253 2 5.87632 10.1769 10.5904
254 2 4.94364 10.8143 9.46912
255 2 7.91802 7.6928 0.604333
256 2 7.17835 8.74025 1.63464
257 2 14.2008 7.92642 9.35992
258 2 -0.267797 8.44072 8.55252
259 2 6.16366 14.3915 3.8125
260 2 4.75946 14.0077 3.26281
261 2 6.35085 1.60272 6.90857
262 2 4.84301 1.75402 6.76165
263 2 1.34137 0.662419 9.62968
264 2 0.817817 14.7755 10.0578
265 2 10.8342 13.0339 1.10914
266 2 12.2496 13.5788 1.43103
267 2 7.99168 4.93257 10.0429
268 2 8.59208 4.87508 8.55834
269 2 -0.0863874 13.5026 5.64494
270 2 0.00602987 12.1735 6.56287
271 2 6.0476 11.6847 7.84187
272 2 4.65027 12.2574 7.8746
273 2 -0.10786 7.21382 14.4417
274 2 1.40859 7.20909 13.8607
275 2 1.10879 5.19843 12.1297
276 2 0.142322 4.18446 11.4107
277 2 0.192301 0.569522 11.8253
278 2 0.262058 0.216297 13.3227
279 2 13.325 12.966 5.76917
280 2 12.474 12.1815 6.79075
281 2 6.96454 1.33987 0.72514
282 2 6.22808 -0.0168944 1.14781
283 2 5.28424 6.95392 7.95734
284 2 5.69738 8.44349 7.79401
285 2 4.59695 2.96295 -0.156096
286 2 4.05776 3.8329 1.0606
287 2 14.2623 2.20361 0.861912
288 2 14.7961 2.02476 15.1013
289 2 7.90736 0.984376 2.41964
290 2 8.42535 2.08554 3.23522
291 2 9.33834 3.30929 9.83257
292 2 10.1754 1.88055 10.1119
293 2 1.75381 4.52695 9.90946
294 2 1.11552 4.78978 8.54253
295 2 12.2645 0.0873025 4.07993
296 2 12.0334 14.6435 5.15054
297 2 9.97133 5.30379 5.02216
298 2 9.51596 4.30903 3.95105
299 2 9.11176 6.41377 14.7882
300 2 7.57568 6.54 14.599
301 2 2.07189 2.92609 11.9449
302 2 2.69894 1.52435 11.845
303 2 10.8501 14.3815 10.4642
304 2 10.5118 -0.206863 11.478
305 2 0.274248 12.7719 0.61942
306 2 0.108425 11.2293 1.22179
307 2 9.70727 2.84376 13.3266
308 2 10.3129 3.49932 12.1129
309 2 7.16744 3.93944 3.6373
310 2 7.68964 3.77425 2.12389
311 2 2.7812 12.2345 3.34142
312 2 4.17512 12.108 2.65722
313 2 13.4252 2.63657 7.76521
314 2 14.4885 3.85196 7.85505
315 2 1.16553 7.50623 0.684607
316 2 1.80702 6.9489 2.01705
317 2 14.4305 9.58843 13.243
318 2 13.0187 10.0336 13.4694
319 2 5.70123 2.57075 8.68482
320 2 6.80813 3.05178 9.52933
321 2 5.35787 4.80808 5.12533
322 2 5.96938 3.53575 5.71789
323 2 13.0854 2.74416 13.3668
324 2 13.871 1.59988 12.7008
325 2 8.54415 7.16809 5.28465
326 2 9.76316 8.11779 5.62097
327 2 3.5805 7.58031 10.0651
328 2 3.76188 9.05652 10.3377
329 2 4.55808 11.8882 11.3243
330 2 3.56374 12.075 12.5347
331 2 0.334551 11.7965 12.6005
332 2 0.24849 12.8839 13.5924
333 2 6.35726 8.22802 5.65351
334 2 6.38531 8.12785 4.02112
335 2 10.214 9.5859 10.0692
336 2 10.6644 8.57403 11.1276
337 2 8.95214 14.8857 9.64428
338 2 7.3584 14.7538 9.70982
339 2 0.591563 15.0693 0.0182509
340 2 1.70203 14.3696 14.7724
341 2 6.4741 3.89198 0.306924
342 2 7.8908 4.74294 0.474307
343 2 13.7745 5.25403 11.174
344 2 12.6407 6.3597 11.1641
345 2 6.61181 10.3071 13.1711
346 2 7.38294 10.2018 14.4287
347 2 5.92965 6.53312 13.3142
348 2 6.65131 8.00804 13.4902
349 2 4.1508 10.9057 6.58172
350 2 3.72612 9.43762 6.27968
351 2 0.960879 1.05271 5.33877
352 2 1.48012 2.49213 5.40543
353 2 8.71011 13.4532 1.93204
354 2 8.99593 13.78 0.520382
355 2 3.28533 0.709593 5.89467
356 2 4.52263 -0.105961 5.1872
357 2 10.8957 8.12501 1.5533
358 2 9.392 8.09909 2.00114
359 2 2.85608 14.8006 10.6062
360 2 3.90293 13.7417 11.0449
361 2 6.48734 12.6937 1.54518
362 2 7.04029 11.6822 2.67807
363 2 2.24681 10.7375 14.3261
364 2 3.668 10.6767 14.8241
365 2 12.3482 3.69431 0.972113
366 2 13.2921 3.83378 2.19605
367 2 12.5073 12.8061 9.60602
368 2 12.5354 13.311 11.1419
369 2 13.9506 6.55755 12.8999
370 2 13.4462 7.1125 14.3857
371 2 11.8334 1.45816 2.05064
372 2 10.4376 0.894116 2.52875
373 2 0.844146 1.54638 0.605455
374 2 2.39804 1.38307 0.478242
375 2 7.77884 0.12269 7.66547
376 2 8.60235 1.23456 6.91956
377 2 12.4122 11.5105 0.551261
378 2 13.9301 11.2794 0.187093
379 2 13.8259 3.47873 9.96028
380 2 13.5184 3.1733 11.5056
381 2 12.9666 3.11167 5.2382
382 2 12.0906 4.05916 4.29522
383 2 5.48443 10.7696 1.07083
384 2 5.47524 10.05 -0.286949
ITEM: TIMESTEP
200
ITEM: NUMBER OF ATOMS
384
ITEM: BOX BOUNDS pp pp pp
-2.1868351273538700e-01 1.5218683512735430e+01
-2.1868351273538700e-01 1.5218683512735430e+01
-2.1868351273538700e-01 1.5218683512735430e+01
ITEM: ATOMS id type x y z
1 1 4.51621 5.56145 13.1612
2 1 14.4667 3.89395 13.9208
3 1 7.64026 10.67 3.79189
4 1 1.72557 3.78827 4.5801
5 1 13.6555 10.2148 10.3232
6 1 9.98288 0.240365 -0.0353391
7 1 13.3562 9.66253 6.07865
8 1 3.34 13.5004 7.61186
9 1 3.15293 6.51301 2.88185
10 1 5.44151 7.88681 2.60754
11 1 13.7845 6.55785 1.85931
12 1 0.554067 10.0631 13.7555
13 1 14.9226 5.43112 4.88895
14 1 9.89009 5.93349 7.83299
15 1 12.25 7.01607 4.00657
16 1 9.87914 2.76643 6.81509
17 1 4.74383 3.92965 11.2793
18 1 7.4091 10.391 11.3074
19 1 8.4022 1.90174 14.375
20 1 5.8404 13.8972 0.571254
21 1 -0.163189 13.3411 9.98363
22 1 12.5405 1.84295 6.25684
23 1 10.6329 7.14172 14.1609
24 1 1.95786 7.85757 6.32144
25 1 10.5357 9.16615 5.80653
26 1 15.1526 8.14227 4.72463
27 1 1.78038 11.4419 4.36178
28 1 5.93336 0.283365 10.5801
29 1 12.2267 8.05627 0.309166
30 1 2.2264 6.47061 12.3157
31 1 3.59112 5.69749 5.3126
32 1 7.68463 11.9173 7.87549
33 1 3.16968 3.57628 2.14014
34 1 3.09231 13.2484 0.169279
35 1 -0.107696 5.28756 7.58558
36 1 10.6294 14.5761 7.37561
37 1 1.16458 14.4987 2.28813
38 1 6.07103 0.469898 13.3077
39 1 0.481166 9.86158 2.79519
40 1 12.211 13.044 12.5361
41 1 0.914516 12.2641 8.05413
42 1 13.5172 14.2842 0.209991
43 1 -0.0649353 15.0054 4.49967
44 1 8.51569 12.7674 11.7603
45 1 12.4636 6.316 6.81154
46 1 9.74564 10.2869 8.16387
47 1 10.3897 10.9621 12.8193
48 1 8.83868 12.4411 5.33305
49 1 3.91642 1.65027 14.2175
50 1 6.41068 13.2896 13.4232
51 1 4.11581 5.98189 9.33569
52 1 11.2036 -0.00317376 13.0646
53 1 7.51933 14.1815 3.5309
54 1 4.70455 2.05996 3.5043
55 1 12.2136 11.3179 8.36485
56 1 8.81269 10.4518 -0.176115
57 1 1.62914 1.81957 8.34434
58 1 8.45737 5.60293 11.6011
59 1 1.13963 9.14336 8.50249
60 1 10.3738 10.4246 3.32491
61 1 11.5397 4.32902 14.826
62 1 10.5351 6.87928 10.5094
63 1 4.88725 10.2783 10.1361
64 1 8.01601 8.06131 1.30289
65 1 14.2794 7.52502 8.6129
66 1 4.88737 14.79 3.67663
67 1 5.75101 1.91223 6.84925
68 1 1.3552 0.339426 10.3446
69 1 11.564 12.449 1.68649
70 1 8.31007 4.24406 9.33058
71 1 15.2035 12.5883 5.65077
72 1 4.93731 11.3129 7.58436
73 1 0.949376 7.50829 14.2803
74 1 1.13163 4.222 11.8801
75 1 -0.0645083 0.593298 12.7242
76 1 12.3515 12.4741 6.02834
77 1 6.22202 1.04875 1.43352
78 1 5.5366 8.08649 7.00045
79 1 4.57464 3.95071 -0.199684
80 1 14.6089 1.75275 0.293056
81 1 8.51128 1.32077 2.70214
82 1 10.093 2.60397 10.2859
83 1 1.9255 4.36163 8.88119
84 1 12.6874 15.0467 4.26756
85 1 10.1485 4.80058 4.83114
86 1 8.29605 6.37204 14.934
87 1 2.77761 2.25052 12.0472
88 1 10.0298 14.7936 10.8252
89 1 15.1543 11.2947 0.688614
90 1 9.68036 3.55763 12.7502
91 1 8.01451 3.81659 3.56297
92 1 3.32167 12.6978 2.72838
93 1 13.5418 3.55417 8.13893
94 1 0.734376 7.56522 1.6545
95 1 13.3613 9.99967 12.7385
96 1 6.20968 2.7813 9.25263
97 1 5.82334 3.83129 5.16508
98 1 13.0644 1.81646 12.6535
99 1 9.01564 7.04185 5.49101
100 1 3.06547 8.20412 10.2681
101 1 4.40784 12.26 12.0328
102 1 0.541184 12.662 12.4328
103 1 6.81454 8.47432 4.74032
104 1 9.77084 9.5413 10.8348
105 1 7.86417 14.5373 9.01618
106 1 0.863283 14.4017 14.5851
107 1 7.39296 3.94809 0.405677
108 1 13.3155 6.61252 10.8056
109 1 6.69087 9.56159 13.7007
110 1 6.74795 6.87611 13.0717
111 1 3.56516 9.87688 5.59833
112 1 1.53948 1.17265 5.72549
113 1 9.12753 13.2047 1.06631
114 1 3.90697 0.128374 6.12019
115 1 10.4511 8.10211 2.27176
116 1 3.78808 14.2381 10.3329
117 1 5.66894 11.6411 2.18369
118 1 3.1406 11.0464 14.1531
119 1 12.3652 3.00065 1.57707
120 1 12.487 13.6283 10.0668
121 1 13.859 6.55851 13.6405
122 1 11.2148 0.921192 2.48663
123 1 1.70304 1.32301 1.09891
124 1 8.06615 0.587681 6.68676
125 1 12.6646 10.6066 -0.156396
126 1 13.9684 3.80524 10.7895
127 1 12.6332 4.1066 4.0629
128 1 4.9492 9.71116 0.389536
129 2 4.70287 5.21642 12.2946
130 2 4.39309 5.0286 13.9936
131 2 14.1296 4.79922 13.907
132 2 -0.160093 3.83009 13.2742
133 2 7.03094 9.75059 4.11367
134 2 8.44821 10.4579 3.61569
135 2 0.968106 4.43103 4.54478
136 2 1.91623 3.80303 3.59058
137 2 14.5848 10.6566 10.2491
138 2 13.3832 10.0336 11.4079
139 2 10.2942 0.485284 0.892909
140 2 9.28976 0.908015 15.0582
141 2 13.4457 9.42376 7.02249
142 2 13.0501 10.5779 5.854
143 2 3.41659 13.9172 8.51258
144 2 3.6127 14.1792 6.98069
145 2 3.226 5.72961 2.14718
146 2 3.10796 5.9006 3.80053
147 2 5.24051 8.55878 1.98169
148 2 4.53256 7.35322 2.4874
149 2 13.3704 6.46355 2.80689
150 2 14.634 7.16623 1.98745
151 2 0.837081 9.06351 13.7138
152 2 0.542447 10.3578 14.6854
153 2 14.2174 4.88503 4.43046
154 2 15.007 6.5226 4.69388
155 2 10.7675 6.0832 7.32312
156 2 9.30992 6.56019 7.32422
157 2 12.4088 6.93956 5.02228
158 2 11.5269 7.69335 3.77412
159 2 9.78709 3.02041 7.71861
160 2 10.1421 3.56145 6.28858
161 2 4.17271 3.20947 11.547
162 2 5.38462 3.5384 10.4383
163 2 8.22304 9.81506 11.1027
164 2 7.75081 11.415 11.2138
165 2 8.24539 2.6985 14.9088
166 2 7.39332 1.75878 13.7436
167 2 6.40347 13.4111 -0.0915472
168 2 4.932 13.8919 0.343872
169 2 14.4484 13.4593 9.85054
170 2 0.0645161 13.0078 11.0654
171 2 11.5256 1.95157 6.38954
172 2 12.7135 1.19673 5.56991
173 2 10.7662 7.32973 13.1299
174 2 11.3785 7.39647 14.7289
175 2 1.24875 7.8899 5.7596
176 2 1.48617 8.1802 7.29814
177 2 11.4551 8.90937 5.89569
178 2 10.2316 9.7858 4.88292
179 2 14.5103 8.74207 5.16708
180 2 0.00246499 8.789 3.94602
181 2 1.35382 11.884 4.96833
182 2 2.44076 10.8738 4.75888
183 2 6.04973 0.969204 10.0731
184 2 5.13673 -0.0999356 10.6179
185 2 12.6681 8.83482 0.0463082
186 2 13.0336 7.20533 0.785682
187 2 2.45692 7.17954 11.5431
188 2 3.21633 6.38964 12.75
189 2 2.98029 6.49371 5.71154
190 2 3.0581 4.99627 5.18834
191 2 7.83181 12.8022 8.17446
192 2 8.13202 12.2023 7.00221
193 2 2.70789 2.89681 1.80014
194 2 3.68028 3.16567 2.82318
195 2 3.03414 12.3031 15.0873
196 2 3.05428 13.1779 1.16709
197 2 -0.149278 5.25754 6.53623
198 2 15.0504 6.23492 8.14771
199 2 11.3166 -0.175325 7.43627
200 2 11.199 13.9925 7.06523
201 2 2.15692 14.1529 2.54255
202 2 1.22839 -0.0737448 1.79539
203 2 6.12548 14.9386 13.4816
204 2 6.07833 0.440631 12.2583
205 2 1.05724 9.20428 2.30788
206 2 1.00495 10.4253 3.35207
207 2 11.757 13.9139 12.7204
208 2 11.7298 12.2582 12.6658
209 2 1.81357 12.9375 8.08038
210 2 0.393497 12.8103 8.74979
211 2 13.47 15.1833 0.415128
212 2 13.4938 14.0329 14.6977
213 2 14.4997 15.2015 4.01947
214 2 0.56761 14.9236 3.76916
215 2 8.8881 13.5287 11.2164
216 2 9.20771 12.4701 12.1685
217 2 12.9728 6.74183 7.5805
218 2 13.0169 5.5321 6.91155
219 2 8.87787 10.8606 8.17312
220 2 9.87991 9.72229 7.43281
221 2 10.3971 10.4225 12.202
222 2 10.1575 10.8161 13.726
223 2 9.72137 12.262 5.06371
224 2 8.1542 11.6459 5.03437
225 2 4.85746 1.20377 13.8836
226 2 3.32418 1.84385 13.4169
227 2 7.24799 12.9641 13.0318
228 2 5.6963 12.5674 13.0291
229 2 3.29438 5.57721 9.19837
230 2 4.53016 5.27636 10.1309
231 2 11.0546 0.156186 13.9855
232 2 11.8998 0.791941 12.839
233 2 7.70454 15.1522 3.57183
234 2 8.10676 13.6838 4.18971
235 2 5.15816 1.35723 2.87943
236 2 5.26383 2.61752 4.0209
237 2 12.4631 10.7177 9.22206
238 2 11.539 10.7129 8.08258
239 2 8.40173 9.77646 0.673172
240 2 8.79075 11.3251 0.33952
241 2 1.52472 1.5015 7.49459
242 2 1.96823 2.68393 8.45997
243 2 8.94515 4.95388 12.0092
244 2 7.74645 6.11136 12.2002
245 2 1.92124 8.97007 9.16721
246 2 1.19602 10.0603 8.55655
247 2 10.8735 11.1753 2.88091
248 2 10.4679 9.48543 2.95905
249 2 11.1856 5.18036 14.9639
250 2 10.9877 3.90577 14.1617
251 2 10.4277 6.36814 9.59201
252 2 9.69698 6.49568 10.9054
253 2 5.7399 10.3064 10.5551
254 2 4.80183 10.8235 9.33276
255 2 7.87625 7.26799 0.578271
256 2 7.22409 7.77702 1.78824
257 2 13.9629 7.19619 9.41674
258 2 14.8447 8.32986 8.81364
259 2 5.87947 14.6667 3.90779
260 2 4.55059 13.9532 3.33405
261 2 6.64059 1.43777 6.69603
262 2 5.16484 1.27638 6.76069
263 2 1.1917 0.88622 9.60104
264 2 0.621094 15.0886 10.3864
265 2 10.6188 12.8617 1.39827
266 2 12.3514 13.0298 1.73499
267 2 8.21928 4.71039 10.1251
268 2 8.69914 4.76934 8.70527
269 2 -0.169374 13.3866 5.19777
270 2 0.104023 12.4794 6.58621
271 2 5.89184 11.5491 7.46795
272 2 4.45428 12.2063 7.49591
273 2 0.0468512 7.19742 14.4539
274 2 1.22888 7.06959 13.5463
275 2 1.58045 5.27181 11.877
276 2 0.299682 4.32702 11.3633
277 2 0.428105 0.92373 12.0167
278 2 0.566307 0.343336 13.4374
279 2 13.3058 12.5935 5.85108
280 2 12.3073 12.1642 7.02112
281 2 6.37844 1.43581 0.547419
282 2 5.87162 0.148667 1.27672
283 2 5.29273 7.28124 7.37875
284 2 5.14124 8.82345 7.35771
285 2 4.48674 2.94262 14.754
286 2 4.12466 3.86733 0.680406
287 2 13.9615 2.27106 0.792113
288 2 14.6621 2.53387 14.9131
289 2 7.67043 1.26252 2.04585
290 2 8.34621 2.09217 3.18336
291 2 9.44913 3.1426 9.62064
292 2 10.3538 1.63987 10.1082
293 2 1.64703 4.21496 9.88197
294 2 1.18472 4.89139 8.42508
295 2 11.8679 0.137878 3.45799
296 2 12.2974 14.1729 4.63364
297 2 9.83855 5.81483 5.06241
298 2 9.55232 4.42446 4.21261
299 2 9.12955 6.7014 14.6401
300 2 7.57181 6.43205 14.2244
301 2 2.11814 2.97174 12.1669
302 2 2.60562 1.52063 11.4686
303 2 10.7421 14.494 10.4183
304 2 10.4012 -0.115044 11.692
305 2 15.1969 12.2802 0.885599
306 2 0.0762254 10.867 1.56223
307 2 9.26946 2.68449 13.2679
308 2 10.2414 3.18529 12.1078
309 2 7.01823 4.0714 4.20088
310 2 7.82382 4.23393 2.68319
311 2 2.79693 12.1837 3.34236
312 2 4.2922 12.0623 2.73521
313 2 13.1739 2.74761 7.49624
314 2 14.3856 3.8823 7.87394
315 2 0.944225 7.45225 0.831085
316 2 1.55069 7.08916 2.18506
317 2 14.3247 10.0509 13.0125
318 2 12.9086 10.3601 13.5773
319 2 5.95868 2.50108 8.35359
320 2 7.05231 3.23924 9.05703
321 2 5.14244 4.47715 5.13257
322 2 5.82268 3.05809 5.96021
323 2 13.1585 2.43047 13.3573
324 2 13.9189 1.52437 12.8871
325 2 8.28607 7.33494 4.97098
326 2 9.62856 7.83638 5.75384
327 2 3.50945 7.46066 9.82824
328 2 3.91907 8.90166 10.483
329 2 4.52216 11.5937 11.3253
330 2 3.85434 11.8898 12.9177
331 2 0.271504 11.7154 12.7305
332 2 0.455824 13.4129 13.1427
333 2 6.30506 8.40298 5.63078
334 2 6.24427 8.25301 4.0547
335 2 9.76679 10.0018 10.0298
336 2 10.0115 8.56873 10.6476
337 2 8.64764 14.8732 9.47429
338 2 7.09485 14.6427 9.61479
339 2 0.0300301 14.4799 -0.140863
340 2 1.68393 13.9262 15.1049
341 2 6.37944 4.08221 0.162961
342 2 7.70497 4.87479 0.165987
343 2 13.5239 5.55824 10.6888
344 2 12.3936 6.91652 10.9015
345 2 6.78647 10.1071 12.8131
346 2 7.63626 9.59546 14.129
347 2 5.9746 6.356 13.093
348 2 6.63477 7.94772 13.3178
349 2 3.87337 10.4258 6.28192
350 2 3.08145 9.0335 5.87062
351 2 0.911553 0.38738 5.4105
352 2 1.57834 1.85168 5.0574
353 2 8.6445 13.3319 1.91138
354 2 9.48474 14.2981 0.7176
355 2 3.14519 0.56922 5.73227
356 2 4.33979 15.1514 5.23838
357 2 11.0016 7.88259 1.48475
358 2 9.52831 7.96374 2.01418
359 2 2.86538 14.7652 10.2198
360 2 3.65049 13.4949 10.9035
361 2 5.96495 12.6544 1.94713
362 2 6.24249 11.4338 2.87129
363 2 2.2662 10.5132 13.9644
364 2 3.91118 10.6618 14.6995
365 2 11.7949 3.54351 0.879966
366 2 12.6747 3.53014 2.39347
367 2 12.2961 12.9302 9.40815
368 2 12.5008 13.3498 11.1055
369 2 13.6493 6.90889 12.7341
370 2 13.2028 6.81023 14.2018
371 2 11.7025 1.74519 2.1389
372 2 10.3041 1.00883 2.72137
373 2 0.80877 1.59701 0.831849
374 2 2.12661 1.2078 0.195037
375 2 8.02193 0.00638969 7.4208
376 2 8.91942 1.28315 6.71105
377 2 12.1101 11.2697 0.438172
378 2 13.6638 11.0979 0.088352
379 2 14.0367 3.74913 9.83587
380 2 13.5287 2.93942 11.2044
381 2 12.694 3.24116 4.62795
382 2 11.7252 4.58651 4.20736
383 2 5.41718 10.5057 0.771027
384 2 5.42554 9.28222 15.1015
ITEM: TIMESTEP
400
ITEM: NUMBER OF ATOMS
384
ITEM: BOX BOUNDS pp pp pp
-1.3021218416963443e-01 1.5130212184169675e+01
-1.3021218416963443e-01 1.5130212184169675e+01
-1.3021218416963443e-01 1.5130212184169675e+01
ITEM: ATOMS id type x y z
1 1 4.5003 5.39336 12.5469
2 1 14.6195 3.87801 14.1055
3 1 7.27842 10.7845 3.42479
4 1 1.66423 3.54528 4.39637
5 1 13.5637 9.67899 9.88963
6 1 9.48532 -0.00499562 15.0189
7 1 13.3409 9.74899 6.41386
8 1 3.48459 13.0404 7.94807
9 1 3.43193 6.09407 2.47236
10 1 5.57409 7.50025 2.115
11 1 13.8485 6.66804 1.99133
12 1 0.654259 10.081 13.9652
13 1 15.1083 5.21973 4.87428
14 1 9.64957 6.48474 8.0934
15 1 12.2576 6.81671 4.46048
16 1 10.2581 2.64396 6.76821
17 1 4.66905 3.78648 10.6397
18 1 6.8697 10.4949 11.15
19 1 7.97196 2.03962 14.3897
20 1 5.8021 13.5564 0.562054
21 1 15.119 13.3951 10.0107
22 1 12.2309 1.94697 5.66489
23 1 10.7626 6.44096 13.4417
24 1 2.04466 7.97827 6.42228
25 1 10.7241 9.07157 5.67348
26 1 15.011 7.90388 4.75685
27 1 1.62909 11.3131 4.42483
28 1 5.92923 0.574763 10.4277
29 1 12.2901 7.84201 0.103384
30 1 2.10294 6.4397 12.0898
31 1 3.30125 5.66963 5.2609
32 1 7.5291 11.9984 7.79115
33 1 3.27522 3.39113 1.92109
34 1 3.24288 12.9305 0.00555168
35 1 0.0372447 4.94226 7.45878
36 1 10.5326 14.6681 7.34252
37 1 0.976134 14.2223 1.79294
38 1 5.92589 0.904718 13.0678
39 1 0.381095 9.73465 2.8161
40 1 12.2615 12.9548 12.3971
41 1 1.18411 11.9965 8.12356
42 1 13.5379 13.9064 -0.0982119
43 1 15.0844 14.876 4.07046
44 1 8.38857 12.8231 11.9332
45 1 11.9874 5.95782 7.14054
46 1 9.70374 10.3338 7.92426
47 1 10.1283 10.9737 12.8198
48 1 8.53808 12.344 5.36385
49 1 3.70208 1.7431 13.9966
50 1 6.14961 13.3983 13.2098
51 1 4.11203 6.15713 8.67361
52 1 11.1957 0.109284 12.8844
53 1 7.40845 13.9541 3.57678
54 1 4.59091 2.10789 3.71587
55 1 12.1317 11.1899 8.48392
56 1 8.84352 10.2039 -0.00929199
57 1 2.05614 1.44853 8.20511
58 1 8.49549 5.25158 11.6543
59 1 0.692453 9.45401 8.80906
60 1 10.0962 10.5911 3.63248
61 1 11.5773 3.89489 14.3799
62 1 10.0955 7.04419 10.4754
63 1 4.66378 10.1027 9.71016
64 1 8.2262 8.11244 1.51653
65 1 14.0528 7.22959 8.1083
66 1 4.89117 14.7273 3.68239
67 1 5.75491 1.77599 6.44273
68 1 1.48746 0.139446 10.2839
69 1 11.2023 12.5661 1.88973
70 1 8.79994 3.96982 9.24276
71 1 15.0055 12.5707 5.6454
72 1 4.97349 11.1042 7.23311
73 1 0.77417 7.57707 14.1992
74 1 0.560016 4.16 11.5898
75 1 15.1089 0.741839 12.5913
76 1 12.3402 12.7278 6.02605
77 1 6.28426 0.968962 1.15526
78 1 5.574 8.04873 7.45744
79 1 4.73274 4.03559 15.0234
80 1 14.5948 1.7015 0.58501
81 1 8.14941 1.24582 3.01625
82 1 10.3644 1.98998 10.5292
83 1 2.02056 4.19359 8.80717
84 1 12.3461 14.9982 4.3225
85 1 9.80166 4.58485 4.92562
86 1 8.28874 6.1148 14.8089
87 1 2.6021 2.21359 11.4691
88 1 10.1315 14.5629 10.6928
89 1 14.8646 11.3848 1.00971
90 1 9.63305 3.20746 12.7212
91 1 7.59408 3.75088 3.47881
92 1 3.15731 12.6999 2.79279
93 1 13.148 3.66046 7.87451
94 1 1.24162 7.68196 1.62216
95 1 13.2286 9.80993 12.6083
96 1 6.46353 2.85526 8.91459
97 1 6.07916 4.43504 5.53479
98 1 12.7832 2.14796 12.4338
99 1 8.75183 7.21055 5.75317
100 1 2.84673 8.13366 9.93265
101 1 4.26333 12.0845 11.7717
102 1 1.02968 12.2725 12.1137
103 1 6.46673 8.43723 4.62458
104 1 9.26895 9.49747 10.6082
105 1 7.58652 14.4308 8.66441
106 1 0.994368 13.9875 14.1078
107 1 7.05579 3.93082 1.02649
108 1 12.5636 6.50635 11.0383
109 1 6.96696 9.46336 13.6274
110 1 6.79671 6.91689 12.7017
111 1 3.83143 9.65775 5.09495
112 1 1.37953 1.05794 5.65094
113 1 8.77817 12.948 1.23126
114 1 3.61874 15.0189 6.32289
115 1 10.7621 8.22256 2.57259
116 1 3.88564 14.1743 10.1477
117 1 5.26043 11.3518 1.82094
118 1 3.24407 10.7967 13.971
119 1 12.18 2.92495 1.67659
120 1 12.3741 13.4838 9.795
121 1 13.786 6.68454 13.3754
122 1 10.8311 0.717721 2.40321
123 1 1.79079 1.51521 0.864738
124 1 8.22516 0.713237 6.02256
125 1 12.2927 10.4524 0.181004
126 1 13.3088 3.99831 10.6303
127 1 12.9654 4.00675 4.38583
128 1 4.69571 9.4522 0.176693
129 2 4.59533 4.68373 11.8591
130 2 4.46862 4.7935 13.3535
131 2 14.2851 4.66968 14.2467
132 2 -0.067333 4.1302 13.427
133 2 7.00103 9.88966 4.03398
134 2 8.14993 10.6682 3.0168
135 2 1.09237 4.24986 4.46054
136 2 2.22829 3.31543 3.49295
137 2 14.6082 9.43555 9.63067
138 2 13.503 9.57951 10.9904
139 2 10.0588 0.267668 0.377742
140 2 8.73773 0.63893 14.8774
141 2 13.1854 10.0879 7.2703
142 2 13.4729 10.5612 5.80639
143 2 3.57143 13.5891 8.81317
144 2 3.26989 13.6324 7.27948
145 2 3.37537 5.11666 2.24853
146 2 3.40768 5.97439 3.40847
147 2 5.23589 8.32344 1.44786
148 2 4.80721 6.99335 2.26302
149 2 13.265 6.62606 2.82612
150 2 14.8277 6.87858 2.15936
151 2 0.86923 9.0013 14.0624
152 2 0.0932265 10.5106 14.7555
153 2 14.1964 4.73332 4.67047
154 2 -0.076736 6.21937 4.72293
155 2 10.299 6.00251 7.51338
156 2 8.97314 6.82974 7.51415
157 2 12.2189 6.78251 5.547
158 2 11.64 7.44003 4.05311
159 2 9.98763 2.90169 7.59315
160 2 10.0851 3.3632 6.24531
161 2 3.84224 3.20025 10.8972
162 2 5.31798 3.50205 9.90626
163 2 7.63594 9.77837 10.9749
164 2 7.26863 11.4893 11.0051
165 2 7.77757 2.71774 15.0318
166 2 7.13124 1.74342 13.9193
167 2 5.91405 13.2667 14.8403
168 2 4.91949 13.2847 0.275636
169 2 14.1571 13.4944 9.93703
170 2 0.0373191 13.1203 10.9853
171 2 11.5348 1.98619 6.23723
172 2 12.4716 0.943469 5.38103
173 2 11.418 6.14697 12.6499
174 2 11.4113 6.76514 14.1448
175 2 1.16179 7.98301 5.89647
176 2 1.77413 8.33612 7.32361
177 2 11.5989 8.98554 5.93496
178 2 10.6403 9.5028 4.70311
179 2 14.1436 8.18434 5.08957
180 2 -0.0846626 8.42077 4.05883
181 2 1.12176 11.7832 5.17887
182 2 2.2866 10.7729 4.9769
183 2 6.30451 1.27155 9.78068
184 2 5.22662 0.0424741 10.2507
185 2 12.4009 9.03953 0.137172
186 2 12.9332 7.40136 0.716255
187 2 2.47231 7.17409 11.6215
188 2 2.93617 5.99373 12.1568
189 2 2.94679 6.37875 5.79188
190 2 2.75586 4.7924 5.1504
191 2 7.24016 12.7081 8.34088
192 2 7.90984 12.2623 6.84214
193 2 2.61939 2.70982 1.49879
194 2 4.05966 2.73733 2.30013
195 2 3.2135 11.9334 14.7003
196 2 3.17513 12.8311 0.934849
197 2 0.135941 5.23739 6.44771
198 2 15.0477 5.79605 7.82988
199 2 10.8963 14.9224 8.30205
200 2 11.3087 14.3907 6.78725
201 2 1.88919 13.728 1.92621
202 2 1.43338 15.0453 1.38773
203 2 5.97465 -0.0701588 13.363
204 2 6.17375 0.737467 11.9585
205 2 1.04251 9.16731 2.42097
206 2 1.10964 10.3986 3.40316
207 2 11.8162 13.686 12.7094
208 2 11.7364 12.2884 12.6643
209 2 1.98858 12.3918 8.08342
210 2 0.550327 12.5086 8.80177
211 2 13.6035 14.8701 14.7457
212 2 13.0831 13.5076 14.4438
213 2 14.1055 15.0557 4.15734
214 2 0.249329 14.6244 3.22487
215 2 8.80853 13.3742 11.3464
216 2 8.99471 12.1373 12.1262
217 2 12.3943 6.51784 7.93242