ITEM: TIMESTEP
0
ITEM: NUMBER OF ATOMS
384
ITEM: BOX BOUNDS pp pp pp
-3.1180958401302572e-01 1.5311809584013066e+01
-3.1180958401302572e-01 1.5311809584013066e+01
-3.1180958401302572e-01 1.5311809584013066e+01
ITEM: ATOMS id type x y z
1 1 4.57679 5.50123 13.6944
2 1 14.8875 3.66367 14.1079
3 1 8.20115 10.8513 3.91518
4 1 1.55859 4.11103 4.68534
5 1 14.0046 11.0534 10.4291
6 1 10.1562 -0.0244194 -0.0179537
7 1 13.1461 9.78511 5.92123
8 1 3.48566 13.6848 7.87681
9 1 3.32305 6.30373 3.20589
10 1 5.30735 8.37688 2.36991
11 1 13.7801 6.32188 1.70807
12 1 0.692367 10.1945 14.1186
13 1 15.0627 5.43363 4.6639
14 1 9.98456 5.97612 7.92121
15 1 12.4056 7.19481 3.96576
16 1 9.83562 2.64919 6.79506
17 1 4.60459 4.17249 11.4106
18 1 7.55062 10.3381 11.1669
19 1 8.27543 1.89543 14.4455
20 1 5.83253 14.0038 0.549654
21 1 -0.277952 13.5963 10.2649
22 1 12.6457 2.09652 6.28487
23 1 10.7129 7.40871 14.2399
24 1 2.2119 7.88472 6.40809
25 1 10.4542 9.69036 5.97773
26 1 -0.282536 8.22967 4.81222
27 1 1.6652 11.2607 4.20606
28 1 6.17365 -0.094545 10.725
29 1 12.1932 8.4542 0.381712
30 1 2.29814 6.67565 12.652
31 1 3.74006 5.65533 5.77839
32 1 7.64075 12.3667 7.75101
33 1 2.57949 3.81144 2.08856
34 1 3.31976 13.3432 0.0677147
35 1 -0.0967938 5.37115 7.46928
36 1 11.1426 14.5448 7.59235
37 1 1.26174 14.8074 2.57217
38 1 6.41618 0.335516 13.3898
39 1 0.207637 9.92258 2.18818
40 1 12.6731 13.1901 12.8323
41 1 1.29363 11.9761 7.9846
42 1 13.2286 14.8362 0.439531
43 1 -0.123887 15.1905 5.01064
44 1 8.80795 12.7708 12.0788
45 1 12.4172 6.75949 6.79319
46 1 9.49869 10.6014 8.40823
47 1 10.544 10.9934 13.3575
48 1 8.99001 12.8372 5.44675
49 1 4.04829 1.51716 14.6149
50 1 6.69928 13.1999 13.7041
51 1 4.43379 6.10378 9.26553
52 1 11.4216 -0.0969869 13.0672
53 1 8.10878 14.4288 3.40524
54 1 4.3962 2.37166 3.28729
55 1 12.1316 11.4523 8.45349
56 1 8.7458 10.8517 -0.213292
57 1 1.53862 1.7361 8.48855
58 1 8.69585 5.89847 11.616
59 1 1.22107 9.19196 8.49846
60 1 10.635 10.5731 3.14594
61 1 11.4957 4.51089 15.2148
62 1 10.9209 6.7156 10.446
63 1 4.94638 10.4223 10.3546
64 1 7.94749 8.55464 1.09697
65 1 14.5919 7.80968 8.4877
66 1 5.26248 14.7619 3.62401
67 1 5.62202 2.26942 6.97039
68 1 1.29568 -0.0251437 10.348
69 1 11.6689 12.7598 1.5126
70 1 8.10674 4.34492 9.29769
71 1 15.2574 12.5827 5.71394
72 1 5.13758 11.4238 7.95676
73 1 0.807368 7.59384 14.5622
74 1 1.07308 4.35508 11.6836
75 1 -0.103901 0.899318 12.6958
76 1 12.4336 12.7126 5.99741
77 1 6.5124 0.898083 1.44852
78 1 5.22926 7.74021 7.34722
79 1 4.69818 3.85809 0.25821
80 1 14.6318 1.53081 0.260033
81 1 8.7843 1.26425 2.88569
82 1 10.1715 2.86217 10.2074
83 1 1.97586 4.56417 8.94346
84 1 12.6683 15.2799 4.82665
85 1 10.1623 4.44247 4.67024
86 1 8.26116 6.29332 15.2182
87 1 2.75694 2.33071 12.3211
88 1 10.1168 15.0402 10.6766
89 1 0.0214213 11.8389 0.424274
90 1 9.92368 3.73613 12.9889
91 1 7.93039 3.8304 3.09944
92 1 3.45334 12.7245 2.72154
93 1 13.7442 3.34545 8.32257
94 1 1.06378 7.50528 1.70711
95 1 13.5608 9.51663 12.896
96 1 6.16563 2.34739 9.6158
97 1 6.00658 4.12469 4.96415
98 1 13.0409 2.11594 12.6389
99 1 9.44842 7.22402 5.61094
100 1 3.08802 8.31472 10.412
101 1 4.27645 12.564 12.0172
102 1 0.247817 12.7339 12.6695
103 1 6.92237 8.32243 4.80264
104 1 10.2096 9.4039 11.0142
105 1 8.10819 14.6608 9.11245
106 1 0.724807 14.5893 14.8093
107 1 7.38606 3.87893 0.612739
108 1 13.59 6.17467 11.3541
109 1 6.57455 9.82429 14.0409
110 1 6.72525 7.05567 13.1783
111 1 3.66994 10.3273 5.96103
112 1 1.66543 1.60839 5.77048
113 1 9.05834 13.0173 1.11863
114 1 4.11235 0.213829 6.02437
115 1 10.3679 8.11545 2.36753
116 1 3.8208 14.5044 10.4834
117 1 6.27696 11.8524 2.07137
118 1 3.1417 11.1769 14.1451
119 1 12.971 3.21476 1.56998
120 1 12.4061 13.5738 10.1924
121 1 14.0948 6.56232 13.8874
122 1 11.4172 0.689063 2.37021
123 1 1.65778 1.52802 1.12949
124 1 7.74882 0.714644 6.86752
125 1 13.0368 10.8806 0.0461404
126 1 14.1536 3.59273 10.8941
127 1 12.9937 3.74289 4.44237
128 1 4.93288 10.2326 0.481908
129 2 4.52916 4.87676 12.9369
130 2 4.69703 5.06241 14.547
131 2 14.6886 4.58995 14.3163
132 2 0.0945933 3.63697 13.6264
133 2 7.74221 10.0755 4.24889
134 2 8.99342 10.7228 3.34745
135 2 0.788771 4.72927 4.53377
136 2 1.81069 3.95163 3.77685
137 2 14.4008 11.9252 10.4575
138 2 13.9069 10.7269 11.3647
139 2 10.6725 0.201823 0.765773
140 2 9.47367 0.652849 -0.0632908
141 2 13.5922 9.97565 6.76473
142 2 13.2152 10.5455 5.32572
143 2 3.67781 14.0964 8.7488
144 2 3.53939 14.3835 7.27865
145 2 3.09567 5.45978 2.78243
146 2 3.60518 6.19337 4.09913
147 2 5.08995 9.05489 1.76222
148 2 4.54185 7.79795 2.5309
149 2 13.4381 6.67871 2.59019
150 2 14.7355 6.25337 1.79471
151 2 0.77524 9.18308 14.2443
152 2 0.388115 10.6288 14.9234
153 2 14.1894 4.91997 4.56536
154 2 14.9228 6.4107 4.60147
155 2 10.8762 5.93786 7.61697
156 2 9.58879 6.53361 7.20672
157 2 12.1014 7.06547 4.8105
158 2 11.5829 7.27566 3.48345
159 2 9.70669 3.06202 7.62541
160 2 9.96186 3.35305 6.0781
161 2 3.89127 3.51534 11.556
162 2 5.31618 3.63484 11.0911
163 2 8.36256 9.80951 10.99
164 2 7.91946 11.2623 11.3115
165 2 7.80256 2.56448 14.9346
166 2 7.58248 1.21916 14.1315
167 2 6.10462 13.5421 -0.242407
168 2 4.85977 13.825 0.528199
169 2 14.4101 13.8153 10.1623
170 2 -0.0704958 13.4422 11.1966
171 2 11.7088 2.1063 6.54679
172 2 12.6961 1.18401 5.89058
173 2 10.9921 7.5299 13.3514
174 2 11.2636 8.01166 14.7268
175 2 1.57728 7.89927 5.7134
176 2 1.87051 8.36741 7.16573
177 2 11.4302 9.71213 6.20698
178 2 10.3486 10.1292 5.1128
179 2 14.4149 8.445 5.04536
180 2 0.00164071 8.8165 4.03796
181 2 1.02838 11.8189 4.67407
182 2 2.36173 10.8675 4.79517
183 2 6.32838 0.734699 10.265
184 2 5.21972 -0.301306 10.6492
185 2 12.568 9.37229 0.310345
186 2 12.8634 7.95827 0.824663
187 2 2.56428 7.41349 12.0109
188 2 3.14156 6.4193 13.0935
189 2 3.16723 6.41343 5.9805
190 2 3.10221 4.98312 5.63197
191 2 7.73547 13.1577 8.33842
192 2 8.06104 12.6116 6.87934
193 2 1.75422 3.38105 1.7562
194 2 3.25148 3.1727 2.47226
195 2 3.15037 12.6412 14.9757
196 2 3.16776 12.9566 0.983888
197 2 0.0720948 5.37286 6.52711
198 2 -0.245356 6.34024 7.61737
199 2 11.6512 14.8569 8.35832
200 2 11.802 13.9131 7.23812
201 2 2.07792 14.3411 2.56175
202 2 1.50629 0.044002 2.08403
203 2 6.3968 14.9261 13.4491
204 2 6.20534 0.425411 12.4267
205 2 0.660795 9.1318 1.85703
206 2 0.694078 10.391 2.87312
207 2 12.3708 14.0972 13.0916
208 2 12.1841 12.5232 13.366
209 2 2.09163 12.5603 7.87369
210 2 0.901668 12.2269 8.80367
211 2 13.6981 0.109016 0.335681
212 2 13.4443 14.3386 15.279
213 2 14.5376 15.2076 4.93591
214 2 0.228484 14.9795 4.13145
215 2 9.24837 13.4527 11.622
216 2 9.52013 12.2417 12.5392
217 2 12.875 7.30125 7.44426
218 2 13.1287 6.09272 6.70831
219 2 8.70364 11.2231 8.31889
220 2 9.67729 10.2938 7.51515
221 2 10.4955 10.2933 12.7118
222 2 10.0325 10.7711 14.1408
223 2 9.87115 13.0955 5.5737
224 2 8.95145 12.0108 4.93614
225 2 4.74251 0.928236 14.2575
226 2 3.48888 1.81195 13.8977
227 2 7.56401 13.1017 13.1985
228 2 6.02622 12.6782 13.2435
229 2 3.65548 5.64787 8.88705
230 2 4.53028 5.65688 10.1121
231 2 10.7483 -0.0654962 13.7661
232 2 11.7812 0.808853 13.0779
233 2 8.36482 -0.291862 3.46612
234 2 8.34757 14.0066 4.25098
235 2 5.1094 1.81781 2.95108
236 2 4.6411 2.96006 4.03817
237 2 12.5339 11.0417 9.22128
238 2 11.1841 11.2095 8.49369
239 2 8.60742 10.312 0.576946
240 2 8.69537 11.7883 0.0583599
241 2 1.42282 1.68337 7.50469
242 2 1.60998 2.65673 8.73322
243 2 8.87953 5.11923 12.1645
244 2 8.03029 6.40716 12.1505
245 2 1.95332 8.95172 9.16853
246 2 1.28006 10.1574 8.3047
247 2 11.2632 11.2403 2.79611
248 2 10.7957 9.70539 2.72449
249 2 11.5653 5.40273 -0.288322
250 2 11.1896 4.32648 14.2564
251 2 10.4204 6.65681 9.62663
252 2 10.2607 6.46258 11.0571
253 2 5.87632 10.1769 10.5904
254 2 4.94364 10.8143 9.46912
255 2 7.91802 7.6928 0.604333
256 2 7.17835 8.74025 1.63464
257 2 14.2008 7.92642 9.35992
258 2 -0.267797 8.44072 8.55252
259 2 6.16366 14.3915 3.8125
260 2 4.75946 14.0077 3.26281
261 2 6.35085 1.60272 6.90857
262 2 4.84301 1.75402 6.76165
263 2 1.34137 0.662419 9.62968
264 2 0.817817 14.7755 10.0578
265 2 10.8342 13.0339 1.10914
266 2 12.2496 13.5788 1.43103
267 2 7.99168 4.93257 10.0429
268 2 8.59208 4.87508 8.55834
269 2 -0.0863874 13.5026 5.64494
270 2 0.00602987 12.1735 6.56287
271 2 6.0476 11.6847 7.84187
272 2 4.65027 12.2574 7.8746
273 2 -0.10786 7.21382 14.4417
274 2 1.40859 7.20909 13.8607
275 2 1.10879 5.19843 12.1297
276 2 0.142322 4.18446 11.4107
277 2 0.192301 0.569522 11.8253
278 2 0.262058 0.216297 13.3227
279 2 13.325 12.966 5.76917
280 2 12.474 12.1815 6.79075
281 2 6.96454 1.33987 0.72514
282 2 6.22808 -0.0168944 1.14781
283 2 5.28424 6.95392 7.95734
284 2 5.69738 8.44349 7.79401
285 2 4.59695 2.96295 -0.156096
286 2 4.05776 3.8329 1.0606
287 2 14.2623 2.20361 0.861912
288 2 14.7961 2.02476 15.1013
289 2 7.90736 0.984376 2.41964
290 2 8.42535 2.08554 3.23522
291 2 9.33834 3.30929 9.83257
292 2 10.1754 1.88055 10.1119
293 2 1.75381 4.52695 9.90946
294 2 1.11552 4.78978 8.54253
295 2 12.2645 0.0873025 4.07993
296 2 12.0334 14.6435 5.15054
297 2 9.97133 5.30379 5.02216
298 2 9.51596 4.30903 3.95105
299 2 9.11176 6.41377 14.7882
300 2 7.57568 6.54 14.599
301 2 2.07189 2.92609 11.9449
302 2 2.69894 1.52435 11.845
303 2 10.8501 14.3815 10.4642
304 2 10.5118 -0.206863 11.478
305 2 0.274248 12.7719 0.61942
306 2 0.108425 11.2293 1.22179
307 2 9.70727 2.84376 13.3266
308 2 10.3129 3.49932 12.1129
309 2 7.16744 3.93944 3.6373
310 2 7.68964 3.77425 2.12389
311 2 2.7812 12.2345 3.34142
312 2 4.17512 12.108 2.65722
313 2 13.4252 2.63657 7.76521
314 2 14.4885 3.85196 7.85505
315 2 1.16553 7.50623 0.684607
316 2 1.80702 6.9489 2.01705
317 2 14.4305 9.58843 13.243
318 2 13.0187 10.0336 13.4694
319 2 5.70123 2.57075 8.68482
320 2 6.80813 3.05178 9.52933
321 2 5.35787 4.80808 5.12533
322 2 5.96938 3.53575 5.71789
323 2 13.0854 2.74416 13.3668
324 2 13.871 1.59988 12.7008
325 2 8.54415 7.16809 5.28465
326 2 9.76316 8.11779 5.62097
327 2 3.5805 7.58031 10.0651
328 2 3.76188 9.05652 10.3377
329 2 4.55808 11.8882 11.3243
330 2 3.56374 12.075 12.5347
331 2 0.334551 11.7965 12.6005
332 2 0.24849 12.8839 13.5924
333 2 6.35726 8.22802 5.65351
334 2 6.38531 8.12785 4.02112
335 2 10.214 9.5859 10.0692
336 2 10.6644 8.57403 11.1276
337 2 8.95214 14.8857 9.64428
338 2 7.3584 14.7538 9.70982
339 2 0.591563 15.0693 0.0182509
340 2 1.70203 14.3696 14.7724
341 2 6.4741 3.89198 0.306924
342 2 7.8908 4.74294 0.474307
343 2 13.7745 5.25403 11.174
344 2 12.6407 6.3597 11.1641
345 2 6.61181 10.3071 13.1711
346 2 7.38294 10.2018 14.4287
347 2 5.92965 6.53312 13.3142
348 2 6.65131 8.00804 13.4902
349 2 4.1508 10.9057 6.58172
350 2 3.72612 9.43762 6.27968
351 2 0.960879 1.05271 5.33877
352 2 1.48012 2.49213 5.40543
353 2 8.71011 13.4532 1.93204
354 2 8.99593 13.78 0.520382
355 2 3.28533 0.709593 5.89467
356 2 4.52263 -0.105961 5.1872
357 2 10.8957 8.12501 1.5533
358 2 9.392 8.09909 2.00114
359 2 2.85608 14.8006 10.6062
360 2 3.90293 13.7417 11.0449
361 2 6.48734 12.6937 1.54518
362 2 7.04029 11.6822 2.67807
363 2 2.24681 10.7375 14.3261
364 2 3.668 10.6767 14.8241
365 2 12.3482 3.69431 0.972113
366 2 13.2921 3.83378 2.19605
367 2 12.5073 12.8061 9.60602
368 2 12.5354 13.311 11.1419
369 2 13.9506 6.55755 12.8999
370 2 13.4462 7.1125 14.3857
371 2 11.8334 1.45816 2.05064
372 2 10.4376 0.894116 2.52875
373 2 0.844146 1.54638 0.605455
374 2 2.39804 1.38307 0.478242
375 2 7.77884 0.12269 7.66547
376 2 8.60235 1.23456 6.91956
377 2 12.4122 11.5105 0.551261
378 2 13.9301 11.2794 0.187093
379 2 13.8259 3.47873 9.96028
380 2 13.5184 3.1733 11.5056
381 2 12.9666 3.11167 5.2382
382 2 12.0906 4.05916 4.29522
383 2 5.48443 10.7696 1.07083
384 2 5.47524 10.05 -0.286949
ITEM: TIMESTEP
200
ITEM: NUMBER OF ATOMS
384
ITEM: BOX BOUNDS pp pp pp
-2.1868351273538700e-01 1.5218683512735430e+01
-2.1868351273538700e-01 1.5218683512735430e+01
-2.1868351273538700e-01 1.5218683512735430e+01
ITEM: ATOMS id type x y z
1 1 4.51374 5.5408 13.1397
2 1 14.4873 3.85941 13.8971
3 1 7.65238 10.6692 3.78765
4 1 1.71157 3.7456 4.57559
5 1 13.6677 10.1635 10.3468
6 1 9.96572 0.229263 -0.0247287
7 1 13.3413 9.65382 6.06837
8 1 3.35956 13.5061 7.60394
9 1 3.1259 6.53297 2.87998
10 1 5.46308 7.86533 2.57051
11 1 13.7577 6.54004 1.87947
12 1 0.58627 10.0648 13.7229
13 1 14.9195 5.41479 4.88749
14 1 9.89366 5.92238 7.81711
15 1 12.2374 6.99703 4.00565
16 1 9.88157 2.75426 6.79223
17 1 4.75071 3.95118 11.2842
18 1 7.40417 10.3832 11.2656
19 1 8.41265 1.91249 14.3738
20 1 5.84491 13.879 0.56907
21 1 -0.139853 13.3244 10.0063
22 1 12.5252 1.83648 6.22883
23 1 10.633 7.14228 14.1954
24 1 1.96592 7.82982 6.31845
25 1 10.51 9.17413 5.77507
26 1 15.1492 8.14606 4.72035
27 1 1.78598 11.4677 4.37743
28 1 5.92554 0.297265 10.5936
29 1 12.2327 8.05606 0.329435
30 1 2.21235 6.48562 12.3218
31 1 3.5714 5.69219 5.3197
32 1 7.68181 11.931 7.86226
33 1 3.15569 3.55193 2.14896
34 1 3.11801 13.2406 0.217536
35 1 -0.10426 5.33293 7.57963
36 1 10.617 14.5857 7.37261
37 1 1.17143 14.5378 2.26815
38 1 6.05949 0.458569 13.3131
39 1 0.467077 9.84854 2.80255
40 1 12.2207 13.0475 12.5334
41 1 0.922166 12.2629 8.03127
42 1 13.5026 14.2862 0.2318
43 1 -0.0724232 14.9907 4.52075
44 1 8.52158 12.8033 11.7375
45 1 12.463 6.32611 6.80297
46 1 9.73592 10.3025 8.15721
47 1 10.4057 10.9806 12.8446
48 1 8.83356 12.4608 5.32942
49 1 3.92033 1.66406 14.2278
50 1 6.4327 13.2779 13.4248
51 1 4.1114 5.97147 9.34268
52 1 11.1966 -0.0386982 13.0923
53 1 7.53839 14.1802 3.51418
54 1 4.70292 2.0403 3.47407
55 1 12.231 11.3232 8.35915
56 1 8.80301 10.4212 -0.166255
57 1 1.66234 1.82171 8.31368
58 1 8.44923 5.57276 11.599
59 1 1.17584 9.13343 8.49657
60 1 10.3798 10.4251 3.32408
61 1 11.5404 4.35781 14.8224
62 1 10.5298 6.87923 10.4727
63 1 4.90398 10.2939 10.14
64 1 8.04727 8.05808 1.33631
65 1 14.3069 7.52342 8.61481
66 1 4.89216 14.807 3.65902
67 1 5.78142 1.93801 6.85771
68 1 1.35046 0.366145 10.3365
69 1 11.5636 12.4619 1.6838
70 1 8.3192 4.24621 9.30385
71 1 15.196 12.5877 5.63606
72 1 4.95067 11.2965 7.60162
73 1 0.954952 7.50612 14.2864
74 1 1.12129 4.22375 11.8605
75 1 -0.0851383 0.600498 12.7501
76 1 12.3359 12.4852 6.02375
77 1 6.23975 1.04006 1.46838
78 1 5.56824 8.06567 7.00005
79 1 4.58735 3.97472 -0.207414
80 1 14.6062 1.72901 0.288956
81 1 8.52402 1.29364 2.71624
82 1 10.1077 2.60608 10.2662
83 1 1.92192 4.34233 8.87793
84 1 12.6777 15.0442 4.26412
85 1 10.1759 4.76707 4.85412
86 1 8.30325 6.33836 14.9125
87 1 2.75499 2.23507 12.0426
88 1 10.0102 14.787 10.8448
89 1 15.1494 11.3094 0.697942
90 1 9.66708 3.57836 12.7721
91 1 7.99416 3.82178 3.56581
92 1 3.34826 12.6884 2.75183
93 1 13.5373 3.54266 8.1512
94 1 0.762434 7.56119 1.67562
95 1 13.3473 9.98682 12.7485
96 1 6.19854 2.77599 9.27288
97 1 5.79277 3.82256 5.14282
98 1 13.0474 1.81917 12.6374
99 1 8.99499 7.04733 5.48857
100 1 3.07349 8.1886 10.2723
101 1 4.40675 12.2216 12.0365
102 1 0.529692 12.6644 12.4485
103 1 6.81952 8.48941 4.68733
104 1 9.78709 9.52528 10.8288
105 1 7.87424 14.5358 9.0295
106 1 0.838158 14.3932 14.5921
107 1 7.40452 3.94445 0.419636
108 1 13.3461 6.5958 10.8035
109 1 6.68864 9.5782 13.702
110 1 6.72403 6.87753 13.0867
111 1 3.5534 9.88443 5.59104
112 1 1.53507 1.19453 5.72088
113 1 9.12198 13.2254 1.03363
114 1 3.89913 0.1228 6.14621
115 1 10.462 8.07728 2.2653
116 1 3.7649 14.2381 10.3099
117 1 5.67573 11.6115 2.18803
118 1 3.17509 11.0446 14.1714
119 1 12.3577 2.98135 1.60621
120 1 12.4666 13.611 10.0651
121 1 13.8727 6.56917 13.6322
122 1 11.2145 0.926142 2.48034
123 1 1.68167 1.33154 1.11266
124 1 8.05773 0.590352 6.65716
125 1 12.6697 10.6136 -0.150564
126 1 13.9786 3.79951 10.776
127 1 12.6178 4.11162 4.11294
128 1 4.94602 9.7527 0.409174
129 2 4.7301 5.10706 12.3451
130 2 4.32634 5.06043 14.0591
131 2 14.1613 4.85519 13.8508
132 2 -0.146813 3.85566 13.2164
133 2 7.04125 9.78104 4.17519
134 2 8.541 10.4785 3.56607
135 2 0.985567 4.37994 4.58461
136 2 1.94341 3.71323 3.66492
137 2 14.5735 10.7133 10.2995
138 2 13.3944 10.0229 11.395
139 2 10.2773 0.59624 0.976817
140 2 9.23988 0.896406 15.0374
141 2 13.514 9.4221 7.06742
142 2 13.0695 10.6508 5.92916
143 2 3.40094 13.945 8.54541
144 2 3.72277 14.2562 6.9702
145 2 3.3303 5.79289 2.19384
146 2 3.14996 5.92861 3.80412
147 2 5.32987 8.52676 1.96305
148 2 4.70266 7.22361 2.45801
149 2 13.4389 6.59768 2.80591
150 2 14.5852 7.27786 1.94678
151 2 0.793293 9.04636 13.6985
152 2 0.558091 10.4031 14.6746
153 2 14.2556 4.95804 4.31121
154 2 15.0976 6.48982 4.68153
155 2 10.7113 6.15784 7.37649
156 2 9.21237 6.42942 7.30117
157 2 12.4255 6.92637 4.99029
158 2 11.5176 7.58005 3.66632
159 2 9.75783 2.95591 7.73929
160 2 10.1262 3.63412 6.36301
161 2 4.09855 3.18813 11.6544
162 2 5.33455 3.60769 10.5456
163 2 8.29828 9.90243 11.0971
164 2 7.6938 11.3109 11.2036
165 2 8.31929 2.71908 14.8927
166 2 7.56958 1.69629 13.6858
167 2 6.30939 13.3954 -0.153668
168 2 4.93286 13.6791 0.326521
169 2 14.4617 13.451 9.73911
170 2 0.195034 12.9794 11.1221
171 2 11.5406 1.95788 6.34406
172 2 12.727 1.14355 5.68238
173 2 10.7323 7.31656 13.1617
174 2 11.3244 7.4789 14.855
175 2 1.25011 7.90014 5.7633
176 2 1.51978 8.22983 7.29992
177 2 11.3905 8.94033 5.91859
178 2 10.3365 9.74883 4.90698
179 2 14.5244 8.65774 5.13959
180 2 -0.120811 8.72363 3.91615
181 2 1.34389 11.8483 4.91797
182 2 2.38795 10.8897 4.76927
183 2 6.05995 1.02302 10.0374
184 2 5.13642 -0.215469 10.5536
185 2 12.6244 8.89793 0.0697404
186 2 13.0648 7.30924 0.774302
187 2 2.43638 7.21838 11.4809
188 2 3.17899 6.29563 12.7507
189 2 3.08826 6.53004 5.71831
190 2 3.03344 4.91899 5.17754
191 2 7.90251 12.8882 8.16357
192 2 7.98096 12.1602 6.968
193 2 2.66038 2.96784 1.69208
194 2 3.68142 3.11442 2.7973
195 2 3.0301 12.4904 15.1832
196 2 3.0892 13.1315 1.16166
197 2 15.2073 5.29991 6.42622
198 2 15.0153 6.1993 8.18733
199 2 11.3328 -0.137232 7.36556
200 2 11.2199 13.9622 7.07031
201 2 2.1528 14.1763 2.39972
202 2 1.27135 -0.0944606 1.77438
203 2 6.14702 14.8532 13.4668
204 2 5.95917 0.560621 12.2784
205 2 1.08582 9.24617 2.29453
206 2 0.996238 10.5158 3.26042
207 2 11.679 13.8094 12.7991
208 2 11.6168 12.2877 12.6918
209 2 1.67893 12.9441 7.98774
210 2 0.412756 12.8023 8.7996
211 2 13.5482 15.1681 0.402663
212 2 13.4056 13.9179 14.725
213 2 14.5627 15.1126 4.11257
214 2 0.588233 14.9108 3.79957
215 2 8.91013 13.4718 11.2194
216 2 9.26743 12.4585 12.255
217 2 13.0213 6.77841 7.66115
218 2 12.8473 5.44519 6.8107
219 2 8.8758 10.8107 8.2464
220 2 9.78661 9.66452 7.36476
221 2 10.3395 10.4568 12.0061
222 2 10.0402 10.6884 13.7174
223 2 9.78741 12.3871 5.09724
224 2 8.28016 11.6305 4.97137
225 2 4.72977 1.16693 13.9342
226 2 3.31867 1.75292 13.4374
227 2 7.25916 12.9904 13.0924
228 2 5.63602 12.7099 13.0244
229 2 3.33412 5.46459 9.12926
230 2 4.53579 5.41649 10.056
231 2 11.039 0.134084 13.999
232 2 11.9069 0.686618 12.8858
233 2 7.7887 15.07 3.4966
234 2 8.18993 13.756 4.21777
235 2 5.28436 1.47591 2.89319
236 2 5.28503 2.67765 4.08288
237 2 12.5853 10.7068 9.14232
238 2 11.5768 10.6674 8.1271
239 2 8.55784 9.71521 0.562769
240 2 8.83529 11.2299 0.338036
241 2 1.49894 1.31522 7.40155
242 2 1.88365 2.66663 8.46571
243 2 8.89576 4.9793 11.9458
244 2 7.7734 5.97164 12.2725
245 2 1.78667 8.87693 9.24062
246 2 1.19582 10.0728 8.51934
247 2 10.8818 11.127 2.81657
248 2 10.4727 9.55432 2.9447
249 2 11.1479 5.25845 14.8383
250 2 11.0088 3.99715 14.1763
251 2 10.399 6.32963 9.58006
252 2 9.77616 6.45823 11.0023
253 2 5.76606 10.313 10.5327
254 2 4.79326 10.8121 9.25002
255 2 7.81727 7.29774 0.655087
256 2 7.22351 7.93867 1.82963
257 2 13.8949 7.2202 9.43469
258 2 14.8253 8.35639 8.76911
259 2 5.86302 14.5224 3.83616
260 2 4.58581 13.9742 3.37048
261 2 6.72517 1.40665 6.77836
262 2 5.19266 1.29644 6.69043
263 2 1.24084 0.936498 9.62095
264 2 0.567954 15.1228 10.4816
265 2 10.6353 12.7594 1.36939
266 2 12.3173 13.1159 1.68004
267 2 8.24168 4.67774 10.1977
268 2 8.72219 4.8028 8.66962
269 2 -0.205483 13.5357 5.32036
270 2 0.0657788 12.4457 6.52281
271 2 5.9058 11.5256 7.53464
272 2 4.39819 12.1612 7.51665
273 2 -0.0648137 7.22511 14.5584
274 2 1.1831 7.02084 13.5794
275 2 1.51434 5.19819 11.8871
276 2 0.236278 4.36987 11.4087
277 2 0.502221 0.82106 11.9807
278 2 0.550566 0.355383 13.3975
279 2 13.3465 12.5477 5.81085
280 2 12.3381 12.1249 6.97764
281 2 6.31008 1.34946 0.573976
282 2 5.89735 0.118317 1.31362
283 2 5.18935 7.27166 7.34276
284 2 5.20399 8.88324 7.2621
285 2 4.47266 2.94813 14.7462
286 2 4.1485 3.849 0.680726
287 2 13.9277 2.2081 0.915453
288 2 14.7099 2.45652 15.0097
289 2 7.67776 1.2782 2.06203
290 2 8.38804 2.14574 3.13712
291 2 9.423 3.10768 9.5324
292 2 10.3413 1.68128 10.1039
293 2 1.61269 4.06483 9.85916
294 2 1.11837 4.88102 8.43215
295 2 11.9655 0.0906343 3.62358
296 2 12.2892 14.1783 4.67939
297 2 9.89953 5.79273 5.02122
298 2 9.501 4.44037 4.26494
299 2 9.14359 6.75924 14.6045
300 2 7.61813 6.35229 14.3508
301 2 2.21269 2.93598 12.2465
302 2 2.48222 1.5383 11.3653
303 2 10.7578 14.4395 10.4229
304 2 10.3598 -0.156445 11.5588
305 2 -0.188975 12.2353 0.798226
306 2 0.107427 10.9022 1.59149
307 2 9.19814 2.80766 13.2359
308 2 10.321 3.27843 12.0348
309 2 7.21936 4.07998 4.23117
310 2 7.81759 4.27866 2.61816
311 2 2.88084 12.1468 3.37937
312 2 4.18142 12.0409 2.72041
313 2 13.3345 2.86272 7.41394
314 2 14.34 3.89794 7.89692
315 2 0.95333 7.4016 0.818791
316 2 1.55849 7.07054 2.11446
317 2 14.2392 10.1668 12.9975
318 2 12.8664 10.3763 13.5592
319 2 5.98535 2.56953 8.34459
320 2 7.02955 3.26854 9.16074
321 2 5.1288 4.54361 5.25109
322 2 5.75616 3.07407 5.96183
323 2 13.1732 2.40847 13.474
324 2 13.9016 1.50615 12.8609
325 2 8.2429 7.46533 4.96451
326 2 9.63425 7.80651 5.71261
327 2 3.50015 7.41327 9.85034
328 2 3.90251 8.9073 10.4076
329 2 4.6476 11.5202 11.2723
330 2 3.86538 11.824 12.8649
331 2 0.149245 11.686 12.6856
332 2 0.473637 13.3805 13.0698
333 2 6.3235 8.35726 5.555
334 2 6.16177 8.2379 4.05938
335 2 9.78843 9.96887 9.97029
336 2 9.93475 8.55557 10.643
337 2 8.75748 14.8068 9.44241
338 2 7.12934 14.6724 9.70151
339 2 0.00906317 14.4007 -0.0892843
340 2 1.57853 14.0666 15.161
341 2 6.47447 4.10483 0.174977
342 2 7.81499 4.93488 0.160793
343 2 13.4805 5.6033 10.6988
344 2 12.4169 6.95051 10.8871
345 2 6.87211 10.1172 12.8004
346 2 7.65207 9.60631 14.1137
347 2 6.03493 6.34468 13.0503
348 2 6.71251 7.91315 13.2746
349 2 3.80649 10.4522 6.21937
350 2 3.12938 8.93818 5.84858
351 2 0.948268 0.477435 5.35562
352 2 1.52569 1.96669 5.08355
353 2 8.68797 13.4046 1.85385
354 2 9.4695 14.2286 0.699808
355 2 3.13337 0.466633 5.75473
356 2 4.24614 15.1961 5.29453
357 2 11.0362 8.00122 1.38421
358 2 9.52176 7.9406 1.95851
359 2 2.82803 14.835 10.2971
360 2 3.62559 13.6041 10.9856
361 2 5.95944 12.6372 2.01128
362 2 6.27147 11.3128 2.98143
363 2 2.24539 10.575 14.1424
364 2 3.93695 10.6592 14.7372
365 2 11.8041 3.49467 0.797939
366 2 12.5514 3.62702 2.28461
367 2 12.2173 12.8269 9.32193
368 2 12.4939 13.3285 11.1068
369 2 13.8069 6.83971 12.7049
370 2 13.1969 6.81872 14.2116
371 2 11.7787 1.69678 2.08942
372 2 10.429 1.05876 2.72176
373 2 0.869951 1.51168 0.809207
374 2 2.15177 1.27634 0.239566
375 2 8.07159 -0.0646893 7.51127
376 2 8.87359 1.17477 6.71341
377 2 12.203 11.1633 0.472772
378 2 13.5584 11.0941 0.0898924
379 2 14.1732 3.76776 9.80003
380 2 13.5186 2.89888 11.2525
381 2 12.6239 3.17851 4.64619
382 2 11.6496 4.48429 4.33469
383 2 5.36244 10.5863 0.76395
384 2 5.46973 9.2406 15.1517
ITEM: TIMESTEP
400
ITEM: NUMBER OF ATOMS
384
ITEM: BOX BOUNDS pp pp pp
-1.3021218416963443e-01 1.5130212184169675e+01
-1.3021218416963443e-01 1.5130212184169675e+01
-1.3021218416963443e-01 1.5130212184169675e+01
ITEM: ATOMS id type x y z
1 1 4.50815 5.38055 12.5623
2 1 14.6053 3.87417 14.0906
3 1 7.25145 10.8016 3.41854
4 1 1.67993 3.53107 4.38681
5 1 13.5491 9.66184 9.89811
6 1 9.46274 -0.028869 15.0339
7 1 13.3402 9.74334 6.40536
8 1 3.46109 13.0703 7.95324
9 1 3.40451 6.08327 2.47946
10 1 5.57426 7.52001 2.10625
11 1 13.8151 6.68567 1.98463
12 1 0.688255 10.0588 13.9694
13 1 15.1229 5.2572 4.89914
14 1 9.62306 6.48637 8.09317
15 1 12.2301 6.79953 4.46379
16 1 10.241 2.65429 6.74998
17 1 4.66908 3.79792 10.6299
18 1 6.86131 10.5053 11.1605
19 1 7.97071 2.04438 14.4014
20 1 5.81103 13.5782 0.550328
21 1 15.1138 13.3895 10.0089
22 1 12.2589 1.92086 5.64414
23 1 10.7806 6.4406 13.4249
24 1 2.00831 7.97331 6.46191
25 1 10.6985 9.05189 5.68693
26 1 14.9897 7.86543 4.73875
27 1 1.65236 11.2717 4.43774
28 1 5.94098 0.574498 10.4166
29 1 12.2814 7.86281 0.106353
30 1 2.08068 6.4454 12.0777
31 1 3.29405 5.68289 5.2693
32 1 7.50281 12.0107 7.7765
33 1 3.28094 3.38871 1.91113
34 1 3.2643 12.9369 0.0132025
35 1 0.0263948 4.95944 7.44205
36 1 10.5126 14.6698 7.31994
37 1 0.984499 14.1986 1.78436
38 1 5.94382 0.941635 13.0612
39 1 0.372694 9.75542 2.80079
40 1 12.2802 12.9677 12.4105
41 1 1.18016 11.9845 8.10286
42 1 13.5304 13.9008 -0.10748
43 1 15.114 14.8748 4.10154
44 1 8.38003 12.8005 11.9514
45 1 12.0156 5.97261 7.12004
46 1 9.69463 10.3306 7.9423
47 1 10.1288 10.9617 12.7997
48 1 8.52407 12.3808 5.39844
49 1 3.67652 1.76274 13.9857
50 1 6.14833 13.43 13.211
51 1 4.12147 6.15365 8.68271
52 1 11.1952 0.114176 12.8595
53 1 7.3833 13.973 3.55634
54 1 4.60543 2.13409 3.70408
55 1 12.1596 11.2164 8.52371
56 1 8.8534 10.2057 -0.0226812
57 1 2.05077 1.4794 8.20372
58 1 8.505 5.26066 11.6614
59 1 0.716356 9.45513 8.7983
60 1 10.0824 10.5751 3.59469
61 1 11.5714 3.8937 14.3802
62 1 10.0845 7.03086 10.4845
63 1 4.67812 10.1168 9.72223
64 1 8.19579 8.11751 1.51249
65 1 14.0441 7.23676 8.10197
66 1 4.87709 14.6929 3.69598
67 1 5.75991 1.77255 6.45729
68 1 1.44839 0.144552 10.2938
69 1 11.1882 12.565 1.91668
70 1 8.8095 3.96211 9.23923
71 1 15.0026 12.5617 5.6214
72 1 4.9832 11.1231 7.22188
73 1 0.779269 7.57955 14.1654
74 1 0.531312 4.15195 11.5855
75 1 15.104 0.744934 12.6219
76 1 12.3776 12.7375 6.01379
77 1 6.29328 0.981305 1.17083
78 1 5.5764 8.05241 7.46753
79 1 4.73053 4.03278 15.0411
80 1 14.5872 1.705 0.570594
81 1 8.17139 1.26167 2.98444
82 1 10.356 1.97785 10.5558
83 1 2.01667 4.22462 8.82823
84 1 12.3495 14.9704 4.34768
85 1 9.80165 4.55966 4.96454
86 1 8.27313 6.0982 14.8147
87 1 2.62318 2.246 11.5003
88 1 10.1474 14.5782 10.663
89 1 14.8292 11.3674 1.00924
90 1 9.62378 3.23901 12.6841
91 1 7.59404 3.72987 3.47376
92 1 3.12709 12.7231 2.7982
93 1 13.1338 3.64015 7.87096
94 1 1.25318 7.66292 1.62568
95 1 13.2367 9.84153 12.6061
96 1 6.4505 2.8546 8.90501
97 1 6.0745 4.43133 5.55373
98 1 12.7905 2.14378 12.4361
99 1 8.72395 7.21074 5.76134
100 1 2.83606 8.1289 9.93959
101 1 4.27071 12.0823 11.772
102 1 1.03078 12.2781 12.105
103 1 6.46827 8.4298 4.63704
104 1 9.26812 9.50042 10.6311
105 1 7.55525 14.4526 8.64847
106 1 0.989554 13.9781 14.089
107 1 7.08626 3.94732 1.01746
108 1 12.559 6.48966 11.0589
109 1 6.97441 9.47147 13.6124
110 1 6.76631 6.89728 12.7571
111 1 3.81782 9.66362 5.11511
112 1 1.41117 1.07736 5.6739
113 1 8.75483 12.9684 1.24289
114 1 3.61559 15.0024 6.34993
115 1 10.7311 8.20338 2.57754
116 1 3.88493 14.1772 10.1626
117 1 5.22611 11.3197 1.82539
118 1 3.23934 10.7961 13.9654
119 1 12.1766 2.91372 1.69812
120 1 12.3933 13.4868 9.78135
121 1 13.7759 6.66317 13.351
122 1 10.8295 0.728338 2.40673
123 1 1.81231 1.52422 0.866795
124 1 8.21095 0.694129 6.03321
125 1 12.3047 10.4453 0.187671
126 1 13.325 4.01615 10.6073
127 1 12.9543 3.98188 4.35139
128 1 4.69306 9.44611 0.167599
129 2 4.49977 4.62866 11.8805
130 2 4.56593 4.86578 13.4277
131 2 14.1711 4.70407 14.2775
132 2 0.000833481 4.07039 13.3942
133 2 7.02487 9.84239 4.02202
134 2 8.06142 10.5874 3.06551
135 2 1.16739 4.2283 4.50535
136 2 2.26911 3.30621 3.54066
137 2 14.5737 9.49074 9.62089
138 2 13.4663 9.54357 10.9848
139 2 9.96434 0.267454 0.522877
140 2 8.78025 0.694411 14.8562
141 2 13.2635 10.0309 7.3447
142 2 13.5183 10.58 5.94693
143 2 3.63003 13.4815 8.74678
144 2 3.33428 13.643 7.1919
145 2 3.31834 5.13455 2.26506
146 2 3.34974 5.89372 3.46986
147 2 5.2053 8.34032 1.50846
148 2 4.77004 6.99839 2.34532
149 2 13.3584 6.63814 2.74479
150 2 14.7908 6.84159 2.18303
151 2 0.843968 8.96733 13.9995
152 2 0.061919 10.5177 14.6494
153 2 14.1254 4.78136 4.59069
154 2 -0.124183 6.24892 4.79933
155 2 10.4129 5.92628 7.54359
156 2 8.96464 6.87007 7.50206
157 2 12.2172 6.82206 5.51934
158 2 11.6843 7.33971 4.09663
159 2 9.93348 2.87699 7.56504
160 2 10.1668 3.3918 6.22822
161 2 3.82074 3.13006 10.8834
162 2 5.26757 3.43352 9.85867
163 2 7.65395 9.79793 10.7834
164 2 7.20839 11.567 10.993
165 2 7.77719 2.63138 15.0948
166 2 7.12954 1.75943 14.0823
167 2 6.08826 13.3769 14.866
168 2 4.81345 13.29 0.266758
169 2 14.1642 13.3527 9.91042
170 2 -0.00112544 13.0278 10.9727
171 2 11.5024 1.95146 6.28131
172 2 12.4782 1.15229 5.36474
173 2 11.3616 6.07449 12.7057
174 2 11.3121 6.78266 14.1781
175 2 1.24828 8.0226 5.95949
176 2 1.80262 8.40298 7.28488
177 2 11.5536 9.10171 5.94794
178 2 10.6499 9.49438 4.70754
179 2 14.1816 8.15163 5.1433
180 2 -0.0700469 8.45404 4.12543
181 2 1.25039 11.909 5.15146
182 2 2.28503 10.7945 5.0932
183 2 6.37741 1.32778 9.88043
184 2 5.23908 0.132026 10.1665
185 2 12.3813 8.93894 0.167361
186 2 12.9518 7.34907 0.694961
187 2 2.3968 7.1683 11.675
188 2 2.92072 5.87727 12.1496
189 2 2.88763 6.40024 5.76458
190 2 2.83521 4.84929 5.065
191 2 7.29061 12.7613 8.3191
192 2 7.88258 12.2791 6.89276
193 2 2.69111 2.75575 1.6025
194 2 3.95567 2.68847 2.20434
195 2 3.17649 12.002 14.7952
196 2 3.13484 12.879 0.865883
197 2 0.0875777 5.26495 6.45472
198 2 15.0085 5.75267 7.84169
199 2 10.8628 14.9563 8.23408
200 2 11.4045 14.3879 6.84854
201 2 1.98247 13.6635 1.90766
202 2 1.42334 15.0519 1.4533
203 2 6.03691 -0.00979057 13.3872
204 2 6.10745 0.761047 11.9608
205 2 1.08306 9.19598 2.28352
206 2 1.11859 10.3457 3.34062
207 2 11.733 13.7044 12.6902
208 2 11.696 12.205 12.6484
209 2 1.95225 12.4101 8.11065
210 2 0.535078 12.444 8.81925
211 2 13.5136 14.9093 14.83
212 2 13.1388 13.5082 14.4396
213 2 14.0725 15.072 4.23927
214 2 0.278402 14.5597 3.30187
215 2 8.94323 13.2932 11.3897
216 2 9.027 12.127 12.0838
217 2 12.4195 6.48084 7.93589
218 2 12.5491 5.0018 7.389