ITEM: TIMESTEP
0
ITEM: NUMBER OF ATOMS
384
ITEM: BOX BOUNDS pp pp pp
0.0000000000000000e+00 1.5645677530000000e+01
0.0000000000000000e+00 1.4707145290000000e+01
0.0000000000000000e+00 1.8073037029999998e+01
ITEM: ATOMS id type x y z
1 1 1.38 1.76 3.37
2 1 5.2 4.47 1.11
3 1 6.59 5.39 3.31
4 1 5.28 4.49 5.56
5 1 2.59 0.84 5.67
6 1 2.69 5.43 5.56
7 1 5.2 1.71 1.07
8 1 5.2 1.73 5.58
9 1 1.32 4.61 7.82
10 1 1.3 4.52 3.36
11 1 2.61 5.41 1.1
12 1 2.59 0.82 1.07
13 1 6.54 0.87 3.33
14 1 6.54 0.88 7.83
15 1 6.51 5.4 7.86
16 1 1.35 1.85 7.92
17 1 9.2 1.76 3.37
18 1 13.05 4.55 1.15
19 1 14.35 5.46 3.4
20 1 13.1 4.49 5.66
21 1 10.41 0.84 5.67
22 1 10.51 5.43 5.65
23 1 13.07 1.79 1.07
24 1 13.02 1.73 5.58
25 1 9.15 4.61 7.91
26 1 9.2 4.52 3.4
27 1 10.45 5.49 1.15
28 1 10.49 0.82 1.12
29 1 14.36 0.87 3.33
30 1 14.36 0.88 7.83
31 1 14.36 5.48 7.9
32 1 9.17 1.85 7.92
33 1 1.3 9.11 3.32
34 1 5.3 11.9 1.11
35 1 6.53 12.81 3.4
36 1 5.2 11.84 5.61
37 1 2.59 8.19 5.58
38 1 2.61 12.79 5.61
39 1 5.25 9.14 1.16
40 1 5.2 9.08 5.67
41 1 1.32 11.96 7.91
42 1 1.38 11.87 3.31
43 1 2.69 12.77 1.06
44 1 2.67 8.17 1.12
45 1 6.49 8.14 3.42
46 1 6.49 8.16 7.92
47 1 6.53 12.83 7.81
48 1 1.35 9.21 7.83
49 1 9.09 9.19 3.37
50 1 13.13 11.9 1.11
51 1 14.44 12.82 3.35
52 1 13.1 11.84 5.56
53 1 10.41 8.19 5.58
54 1 10.51 12.79 5.65
55 1 12.99 9.14 1.12
56 1 13.02 9.08 5.67
57 1 9.12 11.89 7.86
58 1 9.15 11.95 3.4
59 1 10.51 12.77 1.15
60 1 10.38 8.25 1.12
61 1 14.29 8.22 3.37
62 1 14.36 8.24 7.92
63 1 14.36 12.83 7.81
64 1 9.12 9.13 7.83
65 1 1.35 1.83 12.45
66 1 5.2 4.47 10.14
67 1 6.59 5.39 12.34
68 1 5.3 4.56 14.65
69 1 2.67 0.84 14.66
70 1 2.69 5.43 14.6
71 1 5.28 1.71 10.15
72 1 5.25 1.81 14.61
73 1 1.32 4.61 16.85
74 1 1.32 4.59 12.35
75 1 2.63 5.49 10.09
76 1 2.64 0.89 10.2
77 1 6.57 0.79 12.41
78 1 6.54 0.88 16.87
79 1 6.53 5.48 16.94
80 1 1.35 1.85 16.86
81 1 9.2 1.76 12.41
82 1 13.02 4.47 10.14
83 1 14.35 5.46 12.34
84 1 13.05 4.57 14.6
85 1 10.46 0.91 14.71
86 1 10.46 5.51 14.69
87 1 13.1 1.71 10.15
88 1 13.07 1.81 14.61
89 1 9.15 4.61 16.94
90 1 9.2 4.52 12.44
91 1 10.45 5.49 10.18
92 1 10.49 0.82 10.16
93 1 14.39 0.79 12.41
94 1 14.36 0.88 16.87
95 1 14.33 5.4 16.89
96 1 9.17 1.85 16.96
97 1 1.3 9.11 12.45
98 1 5.28 11.83 10.1
99 1 6.59 12.74 12.34
100 1 5.3 11.92 14.65
101 1 2.59 8.19 14.71
102 1 2.69 12.79 14.6
103 1 5.2 9.07 10.2
104 1 5.17 9.16 14.66
105 1 1.38 11.89 16.85
106 1 1.38 11.87 12.35
107 1 2.71 12.84 10.14
108 1 2.56 8.25 10.16
109 1 6.49 8.14 12.46
110 1 6.46 8.24 16.91
111 1 6.61 12.83 16.89
112 1 1.3 9.13 16.96
113 1 9.09 9.19 12.41
114 1 13.13 11.9 10.14
115 1 14.41 12.74 12.44
116 1 13.1 11.84 14.69
117 1 10.38 8.27 14.66
118 1 10.53 12.86 14.64
119 1 12.99 9.14 10.15
120 1 13.02 9.08 14.7
121 1 9.23 11.96 16.9
122 1 9.23 11.95 12.39
123 1 10.51 12.77 10.09
124 1 10.38 8.25 10.16
125 1 14.29 8.22 12.41
126 1 14.31 8.16 16.96
127 1 14.44 12.83 16.89
128 1 9.09 9.21 16.91
129 2 0.46 1.48 3.37
130 2 1.33 2.71 3.37
131 2 5.68 4.81 1.86
132 2 5.67 4.81 0.35
133 2 6.13 5.1 4.1
134 2 6.56 6.34 3.34
135 2 4.38 4.84 5.6
136 2 5.7 4.83 6.36
137 2 2.17 1.18 4.88
138 2 3.49 1.17 5.63
139 2 2.23 5.15 6.35
140 2 2.65 6.39 5.59
141 2 5.65 1.43 1.86
142 2 5.23 2.67 1.1
143 2 5.23 2.69 5.61
144 2 5.65 1.45 6.37
145 2 1.78 4.88 8.61
146 2 1.33 3.65 7.85
147 2 1.78 4.85 4.11
148 2 1.78 4.85 2.6
149 2 3.52 5.14 1.1
150 2 2.64 6.37 1.11
151 2 3.49 1.15 1.11
152 2 2.17 1.16 1.87
153 2 6.09 1.14 4.12
154 2 6.53 14.6171 3.37
155 2 6.09 1.15 8.63
156 2 6.53 14.6371 7.86
157 2 7.43 5.14 7.86
158 2 6.53 6.36 7.86
159 2 1.77 1.51 7.13
160 2 0.46 1.51 7.89
161 2 9.16 2.71 3.37
162 2 8.28 1.48 3.37
163 2 13.06 3.59 1.12
164 2 13.5 4.82 0.36
165 2 13.94 5.12 2.61
166 2 15.25 5.14 3.36
167 2 13.52 4.82 4.86
168 2 12.21 4.84 5.62
169 2 11.31 1.17 5.63
170 2 10 1.18 4.88
171 2 10.47 6.39 5.62
172 2 10.05 5.15 4.86
173 2 12.18 1.46 1.11
174 2 13.49 1.45 1.86
175 2 13.05 2.69 5.61
176 2 13.48 1.45 6.37
177 2 9.61 4.88 7.11
178 2 9.16 3.65 7.88
179 2 8.3 4.84 3.36
180 2 9.61 4.85 2.61
181 2 10.04 5.17 0.35
182 2 11.35 5.14 1.11
183 2 10.02 1.16 0.36
184 2 10.02 1.16 1.88
185 2 13.91 1.14 4.12
186 2 14.35 14.6171 3.37
187 2 13.91 1.15 8.63
188 2 14.36 14.6371 7.86
189 2 13.94 5.14 7.11
190 2 15.26 5.16 7.86
191 2 8.28 1.51 7.89
192 2 9.59 1.51 7.13
193 2 1.75 8.83 4.12
194 2 1.33 10.07 3.36
195 2 4.39 12.19 1.1
196 2 5.25 10.94 1.11
197 2 7.43 12.49 3.36
198 2 6.12 12.48 2.61
199 2 5.68 12.17 4.85
200 2 5.68 12.18 6.37
201 2 2.17 8.54 6.37
202 2 3.49 8.52 5.61
203 2 2.64 13.74 5.61
204 2 3.52 12.51 5.61
205 2 4.35 8.81 1.13
206 2 5.66 8.81 0.36
207 2 5.23 10.04 5.63
208 2 5.65 8.8 4.88
209 2 1.78 12.24 7.11
210 2 1.34 11.01 7.88
211 2 0.48 12.2 3.35
212 2 1.79 12.21 4.11
213 2 2.23 12.49 1.85
214 2 2.65 13.72 1.09
215 2 2.19 8.52 1.88
216 2 2.2 8.52 0.36
217 2 7.38 8.49 3.39
218 2 6.07 8.48 2.63
219 2 6.07 8.5 7.13
220 2 7.38 8.51 7.89
221 2 6.12 12.49 8.61
222 2 7.43 12.51 7.85
223 2 0.46 8.86 7.86
224 2 1.77 8.86 8.62
225 2 9.57 8.85 4.13
226 2 9.57 8.84 2.61
227 2 12.21 12.19 1.1
228 2 13.08 10.94 1.11
229 2 13.95 12.48 2.6
230 2 13.95 12.48 4.11
231 2 13.52 12.18 6.36
232 2 12.21 12.19 5.6
233 2 11.31 8.52 5.61
234 2 10 8.54 6.37
235 2 10.47 13.74 5.62
236 2 10.05 12.51 4.86
237 2 13.47 8.8 1.87
238 2 13.47 8.81 0.36
239 2 13.48 8.8 4.88
240 2 13.05 10.04 5.63
241 2 9.6 12.22 8.62
242 2 9.6 12.22 7.11
243 2 9.16 10.99 3.37
244 2 9.61 12.22 2.61
245 2 10.48 13.72 1.13
246 2 10.05 12.49 0.35
247 2 11.3 8.53 1.12
248 2 10.43 7.29 1.11
249 2 15.2 8.51 3.37
250 2 14.34 7.26 3.37
251 2 14.36 7.28 7.88
252 2 13.91 8.52 7.13
253 2 15.26 12.51 7.85
254 2 13.94 12.49 8.61
255 2 9.15 10.09 7.86
256 2 9.57 8.85 8.62
257 2 1.77 1.49 11.66
258 2 0.46 1.49 12.42
259 2 5.68 4.81 10.9
260 2 5.67 4.81 9.38
261 2 6.56 6.34 12.38
262 2 6.13 5.1 13.14
263 2 4.39 4.85 14.65
264 2 5.25 3.61 14.65
265 2 2.19 1.18 13.9
266 2 2.19 1.18 15.42
267 2 2.23 5.15 15.39
268 2 2.65 6.39 14.63
269 2 4.36 1.44 10.15
270 2 5.24 2.67 10.15
271 2 4.35 1.48 14.65
272 2 5.66 1.47 15.41
273 2 1.78 4.88 17.65
274 2 1.33 3.65 16.89
275 2 1.78 4.87 13.14
276 2 1.34 3.64 12.39
277 2 2.21 5.16 10.89
278 2 3.52 5.14 10.13
279 2 2.19 1.18 9.41
280 2 2.63 14.6471 10.16
281 2 6.09 1.13 11.65
282 2 6.09 1.14 13.17
283 2 6.53 14.6371 16.9
284 2 6.09 1.15 17.67
285 2 7.43 5.16 16.9
286 2 6.12 5.14 16.15
287 2 0.46 1.51 16.89
288 2 1.77 1.51 17.66
289 2 8.28 1.48 12.41
290 2 9.16 2.71 12.4
291 2 13.5 4.81 9.38
292 2 13.5 4.81 10.9
293 2 15.25 5.14 12.39
294 2 13.94 5.13 13.14
295 2 13.51 4.84 15.39
296 2 13.06 3.61 14.64
297 2 10.46 14.6671 14.67
298 2 10.01 1.19 13.91
299 2 11.35 5.16 14.65
300 2 10.04 5.17 13.9
301 2 13.07 2.67 10.15
302 2 12.18 1.44 10.15
303 2 13.49 1.47 15.41
304 2 12.18 1.48 14.65
305 2 9.16 3.65 16.91
306 2 9.61 4.88 16.15
307 2 9.61 4.85 11.64
308 2 8.3 4.84 12.4
309 2 10.04 5.17 9.39
310 2 11.35 5.14 10.15
311 2 10.02 1.16 10.91
312 2 10.02 1.16 9.4
313 2 13.92 1.13 11.65
314 2 13.92 1.14 13.17
315 2 13.91 1.15 17.67
316 2 14.36 14.6371 16.9
317 2 14.36 6.36 16.9
318 2 15.25 5.14 16.9
319 2 8.28 1.51 16.93
320 2 9.59 1.51 16.17
321 2 1.75 8.83 11.66
322 2 1.33 10.07 12.41
323 2 5.7 12.16 10.89
324 2 4.38 12.17 10.13
325 2 6.13 12.46 13.14
326 2 6.56 13.7 12.38
327 2 4.39 12.21 14.65
328 2 5.25 10.96 14.65
329 2 3.49 8.52 14.67
330 2 2.17 8.53 13.91
331 2 2.65 13.74 14.63
332 2 2.23 12.5 15.39
333 2 5.22 10.02 10.17
334 2 5.65 8.79 9.4
335 2 5.65 8.81 13.9
336 2 5.65 8.82 15.42
337 2 0.48 12.22 16.89
338 2 1.79 12.22 17.65
339 2 0.48 12.2 12.39
340 2 1.79 12.21 13.14
341 2 2.23 12.52 9.38
342 2 2.23 12.51 10.89
343 2 2.61 7.29 10.15
344 2 3.48 8.53 10.16
345 2 7.38 8.49 12.42
346 2 6.07 8.48 11.66
347 2 6.52 7.28 16.91
348 2 7.37 8.53 16.91
349 2 6.14 12.5 17.65
350 2 6.13 12.5 16.14
351 2 1.75 8.84 16.16
352 2 1.33 10.09 16.92
353 2 9.57 8.85 13.16
354 2 9.57 8.84 11.65
355 2 13.08 10.94 10.15
356 2 12.21 12.19 10.14
357 2 14.37 13.7 12.41
358 2 13.95 12.46 11.65
359 2 12.21 12.19 14.66
360 2 13.52 12.17 13.9
361 2 11.3 8.55 14.66
362 2 10.43 7.31 14.66
363 2 10.05 12.53 15.4
364 2 10.05 12.52 13.89
365 2 13.47 8.81 9.39
366 2 13.47 8.8 10.91
367 2 13.48 8.8 13.91
368 2 13.05 10.04 14.67
369 2 9.19 11.01 16.9
370 2 8.31 12.24 16.9
371 2 8.31 12.22 12.39
372 2 9.19 10.99 12.4
373 2 10.48 13.72 10.13
374 2 10.05 12.49 10.88
375 2 10.43 7.29 10.15
376 2 11.3 8.53 10.16
377 2 15.2 8.51 12.41
378 2 14.34 7.26 12.4
379 2 15.2 8.51 16.93
380 2 13.89 8.5 16.17
381 2 13.96 12.5 17.65
382 2 13.95 12.5 16.14
383 2 9.57 8.86 16.15
384 2 9.56 8.86 17.67
ITEM: TIMESTEP
200
ITEM: NUMBER OF ATOMS
384
ITEM: BOX BOUNDS pp pp pp
2.4136573719089505e-01 1.5404311792809107e+01
2.3499875751976607e-01 1.4472146532480238e+01
3.2049711169290340e-01 1.7752539918307097e+01
ITEM: ATOMS id type x y z
1 1 1.25066 1.66798 3.35219
2 1 5.01566 4.41159 0.993032
3 1 6.31258 5.28608 3.28297
4 1 5.03612 4.31344 5.41366
5 1 2.54736 0.700047 5.38699
6 1 2.47402 5.27959 5.50409
7 1 5.04616 1.77582 1.04178
8 1 5.12805 1.64023 5.45664
9 1 1.2548 4.33292 7.60463
10 1 1.2589 4.37287 3.24344
11 1 2.53456 5.2499 1.22098
12 1 2.46829 0.840493 1.07569
13 1 6.22858 0.912015 3.24957
14 1 6.29509 0.716655 7.64214
15 1 6.28399 5.22268 7.59568
16 1 1.36943 1.73164 7.53787
17 1 8.81496 1.82315 3.26298
18 1 12.6874 4.38003 0.976995
19 1 13.9651 5.20521 3.23541
20 1 12.6931 4.37636 5.38881
21 1 10.1273 0.853924 5.3444
22 1 10.1754 5.24608 5.46279
23 1 12.7804 1.75838 1.01716
24 1 12.7663 1.71442 5.30003
25 1 8.87186 4.2418 7.66159
26 1 8.89735 4.41835 3.23337
27 1 10.0858 5.31319 1.01729
28 1 10.1232 0.94789 1.08171
29 1 13.9016 0.783536 3.17399
30 1 13.9784 0.834064 7.59123
31 1 14.008 5.21243 7.6732
32 1 8.81489 1.64095 7.57781
33 1 1.30261 8.78416 3.21787
34 1 5.04927 11.5511 1.13735
35 1 6.37595 12.3754 3.17881
36 1 5.0472 11.5053 5.37435
37 1 2.52489 8.01441 5.38473
38 1 2.50248 12.3401 5.33316
39 1 5.03295 8.83598 1.0943
40 1 5.12256 8.89527 5.41047
41 1 1.31522 11.5199 7.49217
42 1 1.35937 11.4366 3.1588
43 1 2.53936 12.364 1.03417
44 1 2.62349 7.88889 1.04806
45 1 6.31737 7.97881 3.32488
46 1 6.27774 7.90962 7.57768
47 1 6.26937 12.3801 7.58552
48 1 1.30369 8.81822 7.62264
49 1 8.91471 8.82114 3.26815
50 1 12.742 11.4543 0.993547
51 1 14.0182 12.2822 3.24395
52 1 12.743 11.5787 5.39919
53 1 10.1266 7.90721 5.38595
54 1 10.1255 12.3918 5.35666
55 1 12.6018 8.79811 1.16931
56 1 12.5707 8.83524 5.32334
57 1 8.79014 11.3953 7.47592
58 1 8.84145 11.4518 3.20641
59 1 10.1566 12.4716 1.08738
60 1 10.0536 8.05616 1.14872
61 1 14.0378 7.98257 3.26991
62 1 13.8307 7.9133 7.54316
63 1 13.9625 12.5414 7.57332
64 1 8.77841 8.79241 7.60844
65 1 1.3069 1.69019 12.0002
66 1 5.12832 4.37409 9.79803
67 1 6.29535 5.38583 11.9599
68 1 5.14202 4.38306 14.0963
69 1 2.58299 0.843561 14.2637
70 1 2.65428 5.27279 14.1293
71 1 5.13983 1.72035 9.87151
72 1 5.12387 1.66249 14.1863
73 1 1.30247 4.39876 16.3125
74 1 1.44901 4.43731 11.9726
75 1 2.61688 5.27353 9.65168
76 1 2.59905 0.879997 9.80707
77 1 6.33404 0.849998 11.9858
78 1 6.39758 0.753226 16.3772
79 1 6.31594 5.30513 16.2584
80 1 1.28033 1.73791 16.3594
81 1 8.87146 1.66292 11.9972
82 1 12.7404 4.33807 9.7905
83 1 13.9647 5.30603 11.9264
84 1 12.6292 4.39199 14.0814
85 1 10.1509 0.800437 14.2121
86 1 10.0384 5.228 14.0485
87 1 12.6946 1.78376 9.77133
88 1 12.7543 1.71081 14.1881
89 1 8.76394 4.42432 16.362
90 1 8.7937 4.40314 11.8486
91 1 10.2009 5.26322 9.68746
92 1 10.0964 0.849017 9.77802
93 1 13.9026 0.839821 11.9037
94 1 14.0205 0.761749 16.2813
95 1 13.927 5.26679 16.2156
96 1 8.87652 1.83062 16.3061
97 1 1.16949 8.82347 11.9376
98 1 5.07693 11.5799 9.76589
99 1 6.34992 12.3858 11.9543
100 1 5.07785 11.4862 14.1851
101 1 2.60174 8.0156 14.1982
102 1 2.63203 12.4 14.1249
103 1 4.99284 8.90424 9.71859
104 1 5.02037 8.79401 14.2271
105 1 1.38043 11.4783 16.2259
106 1 1.33837 11.5312 12.0232
107 1 2.56219 12.42 9.88369
108 1 2.55272 7.90118 9.768
109 1 6.17475 7.97465 11.9357
110 1 6.32788 7.99101 16.3526
111 1 6.35317 12.39 16.3603
112 1 1.26448 8.83624 16.3686
113 1 8.83747 8.6559 11.9196
114 1 12.6211 11.5109 9.77137
115 1 13.9343 12.4205 11.9677
116 1 12.7742 11.4927 14.2066
117 1 10.0111 7.94417 14.2579
118 1 10.3052 12.4167 14.2103
119 1 12.6309 8.94295 9.74002
120 1 12.6403 8.87206 14.1839
121 1 8.89667 11.6244 16.2486
122 1 8.97982 11.4446 11.9995
123 1 10.1126 12.4076 9.68247
124 1 10.1261 7.90021 9.80917
125 1 13.7501 7.93693 11.9732
126 1 13.9257 7.9281 16.323
127 1 14.0582 12.3668 16.276
128 1 8.83931 8.88166 16.3796
129 2 0.401085 1.33453 3.46308
130 2 1.16996 2.64566 3.27474
131 2 5.45942 4.64513 1.80047
132 2 5.66537 4.67485 0.353797
133 2 5.91805 4.78207 3.96377
134 2 6.33991 6.22757 3.21129
135 2 4.20719 4.6409 5.26341
136 2 5.55989 4.80025 6.37127
137 2 2.04056 1.30249 4.61842
138 2 3.46513 1.33367 5.35613
139 2 2.09614 5.00432 6.44679
140 2 2.53945 6.43211 5.38
141 2 5.50124 1.52267 1.92143
142 2 5.08772 2.64853 1.13677
143 2 5.2636 2.59335 5.4292
144 2 5.50951 1.22769 6.23502
145 2 1.79353 4.8145 8.29019
146 2 1.35324 3.25962 7.62208
147 2 1.74341 4.6086 4.08319
148 2 1.73012 4.78012 2.47394
149 2 3.55146 5.11427 1.2374
150 2 2.34811 6.22044 1.15094
151 2 3.40192 1.13355 0.768706
152 2 2.26855 1.06151 2.00145
153 2 5.84031 1.13601 4.31993
154 2 6.26943 14.2295 3.20473
155 2 5.76019 1.04532 8.4243
156 2 6.38844 14.102 7.65469
157 2 7.15926 4.82045 7.41592
158 2 6.29597 6.32415 7.54984
159 2 1.71793 1.05529 6.75955
160 2 0.480854 1.16016 7.70324
161 2 8.60185 2.85649 3.15269
162 2 7.89974 1.30463 3.23401
163 2 12.6898 3.41941 1.09448
164 2 13.2529 4.64097 17.667
165 2 13.6099 4.89018 2.30203
166 2 14.7956 5.0313 3.3777
167 2 13.1193 4.51828 4.61929
168 2 11.8964 4.7875 5.32612
169 2 11.0493 1.25333 5.32617
170 2 9.59223 1.19687 4.48402
171 2 10.0678 6.22578 5.41611
172 2 9.74223 4.84938 4.80126
173 2 12.0005 1.42156 1.0969
174 2 13.0451 1.22068 1.95197
175 2 12.7314 2.88494 5.31077
176 2 13.0384 1.36648 6.30528
177 2 9.35712 4.68434 6.82897
178 2 8.89637 3.31458 7.62281
179 2 7.9618 4.77241 3.51747
180 2 9.38992 4.72337 2.35228
181 2 9.69054 4.99569 17.723
182 2 11.0766 5.02844 0.746372
183 2 9.70896 1.13887 17.6349
184 2 9.64678 1.54644 1.75329
185 2 13.5736 1.18406 3.98463
186 2 14.0363 13.8949 3.25229
187 2 13.506 1.36447 8.52242
188 2 13.8391 13.9917 7.72096
189 2 13.688 4.92486 6.8685
190 2 15.0355 5.02272 7.51616
191 2 7.88329 1.00359 7.65962
192 2 9.44838 1.25112 6.78483
193 2 1.87875 8.59252 4.12905
194 2 1.47007 9.81381 3.02883
195 2 4.1217 11.7773 1.04839
196 2 5.02964 10.439 1.1431
197 2 7.34339 12.0549 3.01776
198 2 5.94005 12.1568 2.24638
199 2 5.68532 11.6728 4.59275
200 2 5.40817 11.9696 6.09126
201 2 2.02425 8.38171 6.37162
202 2 3.6908 8.26921 5.22463
203 2 2.57098 13.4322 5.09995
204 2 3.50491 12.0404 5.26585
205 2 4.01191 8.61976 1.17798
206 2 5.38885 8.07836 0.506163
207 2 4.96873 9.9375 5.20702
208 2 5.62779 8.29748 4.38949
209 2 2.03993 11.9518 6.7617
210 2 1.33269 10.5475 7.46418
211 2 0.356282 11.9564 3.25888
212 2 1.81439 11.8032 4.02329
213 2 2.13517 11.9549 1.73732
214 2 2.52515 13.3157 1.00099
215 2 2.20858 8.1495 1.87309
216 2 2.19676 8.37931 0.428021
217 2 7.29003 8.3974 3.34177
218 2 5.93777 8.35012 2.54708
219 2 5.90985 8.25183 6.73536
220 2 7.28223 8.24213 7.68938
221 2 5.80174 11.9972 8.31761
222 2 7.12681 11.9184 7.77123
223 2 0.536349 8.17333 7.68887
224 2 2.0433 8.37789 8.27254
225 2 9.2836 8.50532 4.07386
226 2 9.35338 8.4156 2.42986
227 2 11.8228 11.8728 1.09941
228 2 12.6969 10.5114 1.04991
229 2 13.5535 11.9318 2.38765
230 2 13.4863 11.8855 3.98672
231 2 13.335 12.0012 6.09963
232 2 11.8415 11.8994 5.42471
233 2 11.1135 8.07534 5.54905
234 2 9.5798 8.32587 6.22315
235 2 10.2134 13.4059 5.46658
236 2 9.7923 12.0665 4.51914
237 2 13.1074 8.5198 1.9878
238 2 13.0107 8.43324 17.6391
239 2 12.9792 8.59316 4.412
240 2 12.5899 9.95997 5.29794
241 2 9.30275 11.871 8.46529
242 2 9.20589 11.943 6.60918
243 2 8.95007 10.4593 3.32858
244 2 9.45396 11.8698 2.5842
245 2 9.95166 13.4191 1.14458
246 2 9.67075 12.2998 17.724
247 2 11.0534 8.06443 1.17982
248 2 10.0717 6.95508 0.864806
249 2 15.0887 8.44832 3.31354
250 2 13.9732 7.02711 3.14033
251 2 13.7808 6.80067 7.56293
252 2 13.459 8.29371 6.59914
253 2 15.0354 12.0891 7.44217
254 2 13.4268 12.1135 8.3328
255 2 8.83958 9.79978 7.61756
256 2 9.20851 8.54241 8.32683
257 2 1.76233 1.28441 11.084
258 2 0.25488 1.30736 11.9014
259 2 5.66879 4.83072 10.5129
260 2 5.75433 4.72742 8.92617
261 2 6.25153 6.39536 11.8606
262 2 5.69409 5.12803 12.7988
263 2 4.07991 4.67932 14.1223
264 2 5.18262 3.3459 14.0724
265 2 2.14167 1.19667 13.3466
266 2 2.17404 0.975589 15.1264
267 2 2.10052 4.84311 14.9072
268 2 2.57902 6.23988 14.1471
269 2 4.07578 1.49274 9.89672
270 2 5.23471 2.61982 9.96453
271 2 4.20694 1.4371 14.393
272 2 5.64691 1.45802 15.0834
273 2 1.64962 4.59478 17.2804
274 2 1.23937 3.46598 16.2681
275 2 2.00553 4.76964 12.8817
276 2 1.37264 3.28697 11.9614
277 2 2.11857 4.9653 10.4791
278 2 3.73593 4.81523 9.822
279 2 2.12274 1.08247 9.11549
280 2 2.55516 14.1587 9.66392
281 2 5.84016 1.18018 11.2685
282 2 5.90251 1.2343 12.7202
283 2 6.40179 13.8695 16.2979
284 2 5.86637 1.05823 17.0743
285 2 7.23317 4.98903 16.3065
286 2 5.82584 4.92781 15.4368
287 2 0.330083 1.314 16.5107
288 2 1.68625 1.4138 17.2907
289 2 7.7192 1.5638 11.9841
290 2 8.63591 2.71573 11.8994
291 2 13.2397 4.76314 9.04931
292 2 12.8752 4.80769 10.8139
293 2 14.8852 5.05789 11.8973
294 2 13.626 4.88187 12.9121
295 2 13.0593 4.75684 14.9563
296 2 12.7449 3.38358 14.2099
297 2 10.2078 14.0219 14.2004
298 2 9.6171 1.01501 13.2919
299 2 10.9459 4.95862 13.8946
300 2 9.64232 4.86332 13.1951
301 2 12.6956 2.77691 9.8753
302 2 11.6499 1.52609 9.76675
303 2 13.1178 1.36607 15.1201
304 2 11.7382 1.38192 14.1583
305 2 8.99657 3.48213 16.2596
306 2 9.19346 4.84853 15.7377
307 2 9.15978 4.69482 10.9793
308 2 7.8625 4.74442 11.882
309 2 9.69051 4.97249 8.83822
310 2 11.1672 4.91318 9.75768
311 2 9.65311 1.16596 10.6127
312 2 9.60754 1.23112 9.0756
313 2 13.6303 1.31622 10.9203
314 2 13.3173 1.17013 12.8215
315 2 13.6821 1.02906 17.0985
316 2 14.1561 13.9038 16.3854
317 2 13.7706 6.27136 16.355
318 2 14.9407 5.09099 16.1583
319 2 7.87617 1.61156 16.2765
320 2 9.406 1.46336 15.5115
321 2 1.71665 8.65218 10.9947
322 2 1.32306 9.92677 11.9688
323 2 5.80222 11.8489 10.4314
324 2 4.1409 12.115 9.93964
325 2 5.94161 12.0065 12.8005
326 2 6.33742 13.3069 11.9915
327 2 4.24743 11.7533 14.0579
328 2 5.18492 10.4461 13.9445
329 2 3.41316 8.51339 14.2788
330 2 2.15528 8.29745 13.3211
331 2 2.68308 13.6214 14.1826
332 2 2.19545 12.2598 14.9631
333 2 5.06451 9.94372 9.63486
334 2 5.45961 8.4848 8.87516
335 2 5.59608 8.59825 13.4722
336 2 5.53184 8.62526 15.0705
337 2 0.486393 11.9061 16.4175
338 2 1.83846 11.7902 17.081
339 2 0.312995 11.8915 11.9839
340 2 1.7501 12.0629 12.7156
341 2 2.09144 11.9376 9.10806
342 2 2.01459 12.2026 10.6677
343 2 2.60128 7.01374 9.61727
344 2 3.5216 8.16226 9.58534
345 2 7.04379 8.5158 11.9707
346 2 5.74448 8.47322 11.1121
347 2 6.40719 7.11357 16.0454
348 2 7.3329 8.48333 16.4454
349 2 5.94879 11.9164 17.091
350 2 5.94033 11.9683 15.6742
351 2 1.76136 8.73178 15.6357
352 2 1.23581 9.99498 16.273
353 2 9.41576 8.28793 12.7093
354 2 8.99304 8.16307 11.228
355 2 12.805 10.6002 9.70512
356 2 11.6539 11.8736 9.80682
357 2 13.865 13.3887 12.0106
358 2 13.4757 12.1478 11.0823
359 2 11.9117 11.9026 14.0562
360 2 13.2795 11.7922 13.4337
361 2 11.0515 8.1078 14.1062
362 2 9.93869 6.82729 14.2668
363 2 9.78641 11.9102 14.9864
364 2 9.65701 12.0574 13.4792
365 2 12.9041 8.49925 8.98531
366 2 13.1333 8.29493 10.4536
367 2 12.9682 8.56165 13.2187
368 2 12.63 9.78011 14.3967
369 2 9.10244 10.7307 16.5019
370 2 7.81622 11.6764 16.2536
371 2 8.02346 11.8633 12.1128
372 2 8.77158 10.5006 12.0921
373 2 10.2605 13.3628 9.65387
374 2 9.68586 12.1423 10.4779
375 2 10.2266 6.82629 9.68042
376 2 10.936 8.30078 9.66629
377 2 14.8608 8.2981 12.1134
378 2 13.9915 6.97565 12.2763
379 2 14.889 8.13623 16.2555
380 2 13.3498 8.36807 15.5018
381 2 13.5621 11.9301 17.0104
382 2 13.4819 12.1137 15.5435
383 2 9.11234 8.5146 15.5894
384 2 9.43443 8.59923 17.2301
ITEM: TIMESTEP
400
ITEM: NUMBER OF ATOMS
384
ITEM: BOX BOUNDS pp pp pp
4.6654049692420863e-01 1.5179137033075790e+01
4.3348055518130035e-01 1.4273664734818711e+01
6.2313843955395143e-01 1.7449898590446061e+01
ITEM: ATOMS id type x y z
1 1 1.41773 1.66022 3.27971
2 1 5.10251 4.41886 1.14281
3 1 6.2139 5.15126 3.25576
4 1 4.85623 4.23578 5.19574
5 1 2.53887 0.601564 5.38173
6 1 2.43281 5.14717 5.30638
7 1 4.88913 1.76105 1.20114
8 1 4.97411 1.61347 5.18092
9 1 1.18986 4.26733 7.40932
10 1 1.22322 4.3072 3.1268
11 1 2.52603 5.02031 1.03056
12 1 2.49612 0.929493 1.08082
13 1 6.15835 0.802796 3.16033
14 1 6.29918 0.822446 7.34029
15 1 6.1144 5.11334 7.22257
16 1 1.47317 1.72162 7.32524
17 1 8.58466 1.76409 3.20251
18 1 12.229 4.20398 0.789037
19 1 13.392 5.0274 2.94856
20 1 12.2122 4.1045 5.05183
21 1 9.90594 0.656468 5.16061
22 1 9.8441 5.11637 5.2003
23 1 12.2596 1.54369 1.02766
24 1 12.4377 1.56095 5.2233
25 1 8.62941 4.13185 7.29757
26 1 8.56966 4.37429 2.98446
27 1 9.8721 5.21433 0.846347
28 1 9.7596 0.903514 1.09846
29 1 13.6414 0.921212 3.13178
30 1 13.617 0.815395 7.55587
31 1 13.55 5.20767 7.14582
32 1 8.7298 1.48192 7.3304
33 1 1.30652 8.56073 3.19035
34 1 4.95743 11.1285 1.08437
35 1 6.21697 12.0926 3.0198
36 1 4.94034 11.1891 5.06712
37 1 2.45821 7.71005 5.38614
38 1 2.38053 11.8787 5.25122
39 1 4.85475 8.58435 1.09745
40 1 4.91525 8.61663 5.11231
41 1 1.19714 11.0911 7.34144
42 1 1.20241 11.158 3.05693
43 1 2.57452 12.2125 1.01725
44 1 2.37344 7.5974 0.987128
45 1 6.27699 7.69969 3.05669
46 1 6.17726 7.78143 7.29359
47 1 6.01552 12.0082 7.34376
48 1 1.11768 8.44935 7.28642
49 1 8.68876 8.59049 3.0668
50 1 12.3677 11.1176 1.03598
51 1 13.4624 12.2052 3.15239
52 1 12.3771 11.3699 5.28503
53 1 9.8033 7.64703 5.27784
54 1 9.81902 11.9945 5.29835
55 1 12.3896 8.65318 1.15474
56 1 12.2255 8.73653 5.1453
57 1 8.48488 11.228 7.26939
58 1 8.68191 11.1917 3.12336
59 1 9.94825 12.1915 1.03781
60 1 9.85399 7.75722 1.01043
61 1 13.5697 7.69363 3.1319
62 1 13.329 7.7809 7.21638
63 1 13.5127 12.1296 7.48192
64 1 8.44145 8.59865 7.25452
65 1 1.42351 1.65344 11.5664
66 1 4.99165 4.19427 9.40418
67 1 6.14397 5.27939 11.5564
68 1 4.97265 4.40968 13.6267
69 1 2.5377 0.723793 13.6705
70 1 2.48563 5.1895 13.7053
71 1 4.98039 1.62561 9.64992
72 1 4.97459 1.89148 13.8172
73 1 1.13539 4.32763 15.6858
74 1 1.34708 4.18524 11.6606
75 1 2.45807 5.19616 9.65337
76 1 2.5626 0.781713 9.51208
77 1 6.22577 0.714839 11.7485
78 1 6.11971 0.775467 15.895
79 1 6.30563 5.1168 15.8116
80 1 1.1345 1.6219 15.7435
81 1 8.50502 1.72441 11.5638
82 1 12.3704 4.3736 9.4489
83 1 13.5521 5.13464 11.5656
84 1 12.2092 4.16423 13.5927
85 1 9.80055 0.806188 13.5656
86 1 9.78724 4.94614 13.433
87 1 12.186 1.72952 9.57811
88 1 12.3157 1.44069 13.7014
89 1 8.65747 4.10791 15.6339
90 1 8.53397 4.28744 11.3424
91 1 9.90514 5.20291 9.22141
92 1 9.92353 0.728294 9.49897
93 1 13.6317 0.976738 11.5084
94 1 13.6129 0.541961 15.8567
95 1 13.4463 5.18652 15.5228
96 1 8.64386 1.55727 15.6936
97 1 1.24234 8.74022 11.5188
98 1 4.94413 11.2586 9.52447
99 1 6.15376 12.0303 11.6203
100 1 4.88753 11.256 13.7712
101 1 2.35519 7.76344 13.5756
102 1 2.40562 12.0294 13.5793
103 1 4.74888 8.63597 9.43071
104 1 4.76586 8.73603 13.6431
105 1 1.33307 11.049 15.8286
106 1 1.25519 11.347 11.5023
107 1 2.39516 12.0715 9.41923
108 1 2.31784 7.70918 9.43548
109 1 6.11731 7.87188 11.5073
110 1 6.20717 7.7874 15.6914
111 1 6.21284 12.0337 15.7213
112 1 1.28565 8.55327 15.7752
113 1 8.64026 8.66262 11.5453
114 1 12.1904 11.2343 9.44595
115 1 13.4731 12.2249 11.4191
116 1 12.1539 11.3029 13.5332
117 1 9.7829 7.62114 13.6983
118 1 9.73586 12.0512 13.4665
119 1 12.2583 8.54248 9.48236
120 1 12.1973 8.6326 13.5368
121 1 8.6934 11.3454 15.8848
122 1 8.54868 11.1672 11.5011
123 1 9.74631 11.9744 9.43363
124 1 9.81028 7.7293 9.45044
125 1 13.5148 7.71253 11.4722
126 1 13.5175 7.75248 15.7053
127 1 13.5891 11.7933 15.7633
128 1 8.55661 8.6271 15.7914
129 2 15.1403 1.3155 3.14889
130 2 1.32918 2.70466 3.3835
131 2 5.52942 4.60369 1.9815
132 2 5.66155 4.4826 17.2825
133 2 5.51617 4.75395 4.02355
134 2 6.23096 6.23586 3.1946
135 2 3.90067 4.76236 5.215
136 2 5.28804 4.47631 6.02369
137 2 1.96589 0.857094 4.41466
138 2 3.32714 1.17623 5.33852
139 2 1.95971 4.90392 6.12797
140 2 2.33657 6.30537 5.19716
141 2 5.50541 1.4619 1.7974
142 2 4.95206 2.75224 0.939224
143 2 4.58219 2.54216 5.05513
144 2 5.27993 1.2897 6.1018
145 2 1.66663 4.52291 8.15701
146 2 1.38406 3.32076 7.42763
147 2 1.59951 4.84442 3.89359
148 2 1.73483 4.5768 2.37513
149 2 3.54806 4.7188 0.997716
150 2 2.54543 6.00352 0.925422
151 2 3.48979 1.41079 1.01886
152 2 2.04273 1.34276 1.9561
153 2 5.56949 1.32481 3.99973
154 2 6.14794 13.6297 3.17966
155 2 5.90071 1.24605 8.24204
156 2 6.24664 13.6777 7.39429
157 2 7.08012 4.76662 7.13491
158 2 6.09769 6.10931 6.99584
159 2 1.69285 1.28893 6.44153
160 2 0.480528 1.23546 7.43364
161 2 8.7169 2.63584 3.33227
162 2 7.53432 1.34068 3.13599
163 2 12.155 3.27887 0.924296
164 2 12.4907 4.47296 16.7659
165 2 12.8918 4.78145 2.20319
166 2 14.3883 4.84919 3.124
167 2 12.727 4.37126 4.23676
168 2 11.1856 4.42744 5.11806
169 2 10.8876 1.03991 5.02714
170 2 9.37138 1.14731 4.42838
171 2 9.64503 6.06818 5.3083
172 2 9.36314 4.9618 4.37178
173 2 11.2983 1.27397 0.75233
174 2 12.8473 1.32476 1.86469
175 2 12.3781 2.59769 5.33898
176 2 12.8488 1.27503 6.24057
177 2 9.04692 4.41267 6.3294
178 2 8.54568 3.07385 7.40513
179 2 7.7165 4.63158 3.10383
180 2 9.02196 4.81254 2.32291
181 2 9.43987 4.77885 16.6165
182 2 10.7659 4.91411 0.840016
183 2 9.09883 1.15525 17.1283
184 2 9.34516 1.40481 1.93578
185 2 13.3301 1.17959 3.94318
186 2 13.4703 13.7287 3.14429
187 2 13.2715 1.16436 8.39762
188 2 13.6774 13.6115 7.68492
189 2 13.2612 4.69292 6.38198
190 2 14.5347 5.13726 7.32922
191 2 7.81898 1.34056 7.21907
192 2 9.22299 1.41759 6.49099
193 2 1.94138 8.26028 3.86025
194 2 1.26576 9.47819 3.14515
195 2 3.99067 11.5617 1.02628
196 2 4.89371 10.2404 1.11466
197 2 7.13465 11.7902 3.00369
198 2 5.81467 11.6485 2.20826
199 2 5.46713 11.543 4.32026
200 2 5.31908 11.325 5.86452
201 2 1.98937 7.98603 6.37392
202 2 3.45943 8.07414 5.32049
203 2 2.5724 12.8167 5.32486
204 2 3.35606 11.5925 5.26478
205 2 3.99952 8.30164 1.32126
206 2 5.29204 8.08099 17.0486
207 2 5.06611 9.59777 4.97025
208 2 5.50349 8.07954 4.38217
209 2 1.5812 11.2224 6.3959
210 2 1.13671 10.1254 7.35832
211 2 15.1404 11.5266 3.45498
212 2 1.81492 11.5638 3.85686
213 2 1.95823 11.8866 1.6995
214 2 2.69702 13.1229 0.986073
215 2 2.01093 8.10007 1.60326
216 2 1.96008 8.02309 16.9233
217 2 7.36171 8.08839 3.04136
218 2 5.75878 8.05507 2.03557
219 2 5.67283 8.00652 6.54272
220 2 7.2479 8.17412 7.13512
221 2 5.51698 11.7078 8.39578
222 2 7.08158 11.738 7.27599
223 2 14.8347 8.08368 7.55514
224 2 1.47089 8.41503 8.24274
225 2 9.08249 8.20658 4.07446
226 2 9.05481 7.95679 2.142
227 2 11.2587 11.403 1.12137
228 2 12.2973 10.1574 1.02434
229 2 13.0113 11.6449 2.36451
230 2 13.0843 11.9046 4.06407
231 2 12.8733 11.4684 6.04092
232 2 11.4311 11.5979 5.20191
233 2 10.8728 7.88364 5.30699
234 2 9.37651 8.16024 6.06743
235 2 9.89272 12.9297 5.20969
236 2 9.41435 11.6425 4.45666
237 2 12.9418 8.15916 1.83168
238 2 12.7012 8.07336 17.2857
239 2 12.6473 8.2155 4.531
240 2 12.2407 9.70072 5.11046
241 2 9.0505 11.4106 8.01315
242 2 8.91043 11.6451 6.48085
243 2 8.57926 10.2441 3.06122
244 2 9.31445 11.3983 2.44224
245 2 9.74419 13.1262 1.28746
246 2 9.34862 11.7324 16.9826
247 2 10.7903 8.02103 0.95965
248 2 9.96315 6.673 0.984888
249 2 14.596 7.94733 3.51136
250 2 13.484 6.79101 3.25634
251 2 13.3849 6.67823 7.11859
252 2 13.078 8.17737 6.247
253 2 14.4234 11.7884 7.49159
254 2 12.8986 11.7583 8.41385
255 2 8.48572 9.63131 7.33834
256 2 8.82691 8.12927 8.11642
257 2 1.87265 1.17774 10.7636
258 2 0.529719 1.4359 11.5559
259 2 5.61594 4.54929 10.1607
260 2 5.28963 4.63401 8.44717
261 2 6.00174 6.38797 11.6007
262 2 5.60749 4.96376 12.4034
263 2 3.98488 4.72611 13.5802
264 2 4.92826 3.44952 13.7607
265 2 2.10718 1.00291 12.7179
266 2 1.89407 1.23508 14.372
267 2 2.07846 4.72846 14.6578
268 2 2.3968 6.14759 13.6851
269 2 4.17454 1.11423 9.5127
270 2 5.0798 2.71246 9.48558
271 2 3.86556 1.51749 13.7693
272 2 5.5102 1.43657 14.5433
273 2 1.77652 4.55743 16.4337
274 2 1.292 3.31068 15.7054
275 2 1.84211 4.39978 12.4994
276 2 1.4336 3.21114 11.662
277 2 2.09906 4.8438 10.5926
278 2 3.42711 4.86919 9.49494
279 2 2.11504 1.10673 8.78941
280 2 2.61473 13.6663 9.39881
281 2 5.92052 1.15819 10.8554
282 2 5.94898 1.20346 12.5104
283 2 6.16651 13.5687 16.0191
284 2 5.53743 1.15018 16.5703
285 2 7.08909 4.80686 15.6784
286 2 5.90812 4.92848 14.8909
287 2 15.0088 1.1001 15.6815
288 2 1.66672 1.41278 16.6348
289 2 7.54437 1.481 11.8474
290 2 8.35679 2.79427 11.4533
291 2 12.756 4.55882 8.62446
292 2 12.8868 4.54666 10.3311
293 2 14.5723 4.8415 11.551
294 2 13.0076 4.90886 12.5015
295 2 12.8141 4.50683 14.3007
296 2 12.4939 3.02745 13.8096
297 2 9.68034 13.7156 13.4142
298 2 9.27782 1.00749 12.7067
299 2 10.6846 4.55227 13.3701
300 2 9.25988 4.7358 12.5614
301 2 12.0498 2.62615 9.36356
302 2 11.2208 1.30449 9.51333
303 2 12.7632 1.28902 14.5528
304 2 11.3901 1.3095 13.5873
305 2 8.55944 3.10186 15.5533
306 2 9.01943 4.37646 14.6393
307 2 9.25221 4.80117 10.4844
308 2 7.38539 4.64271 11.4175
309 2 9.5506 4.81223 8.55134
310 2 10.9677 4.80724 9.34926
311 2 9.3236 0.944177 10.1764
312 2 9.54304 0.967466 8.6505
313 2 13.0428 1.35134 10.807
314 2 13.1333 1.47564 12.3755
315 2 13.3819 0.984153 16.6844
316 2 13.6247 13.3826 15.7284
317 2 13.518 6.2544 15.2946
318 2 14.5191 4.87712 15.5324
319 2 7.50678 1.04346 15.7839
320 2 9.06753 1.19417 14.9539
321 2 1.568 8.38895 10.716
322 2 1.01512 9.507 11.4397
323 2 5.49855 11.3879 10.3622
324 2 4.0078 11.5398 9.53123
325 2 5.52563 11.6416 12.3399
326 2 6.32061 13.0132 11.662
327 2 3.93568 11.4849 13.7581
328 2 4.83291 10.2456 13.7892
329 2 3.3391 7.96505 13.4211