ITEM: TIMESTEP
0
ITEM: NUMBER OF ATOMS
384
ITEM: BOX BOUNDS pp pp pp
-3.1180958401302572e-01 1.5311809584013066e+01
-3.1180958401302572e-01 1.5311809584013066e+01
-3.1180958401302572e-01 1.5311809584013066e+01
ITEM: ATOMS id type x y z
1 1 4.57679 5.50123 13.6944
2 1 14.8875 3.66367 14.1079
3 1 8.20115 10.8513 3.91518
4 1 1.55859 4.11103 4.68534
5 1 14.0046 11.0534 10.4291
6 1 10.1562 -0.0244194 -0.0179537
7 1 13.1461 9.78511 5.92123
8 1 3.48566 13.6848 7.87681
9 1 3.32305 6.30373 3.20589
10 1 5.30735 8.37688 2.36991
11 1 13.7801 6.32188 1.70807
12 1 0.692367 10.1945 14.1186
13 1 15.0627 5.43363 4.6639
14 1 9.98456 5.97612 7.92121
15 1 12.4056 7.19481 3.96576
16 1 9.83562 2.64919 6.79506
17 1 4.60459 4.17249 11.4106
18 1 7.55062 10.3381 11.1669
19 1 8.27543 1.89543 14.4455
20 1 5.83253 14.0038 0.549654
21 1 -0.277952 13.5963 10.2649
22 1 12.6457 2.09652 6.28487
23 1 10.7129 7.40871 14.2399
24 1 2.2119 7.88472 6.40809
25 1 10.4542 9.69036 5.97773
26 1 -0.282536 8.22967 4.81222
27 1 1.6652 11.2607 4.20606
28 1 6.17365 -0.094545 10.725
29 1 12.1932 8.4542 0.381712
30 1 2.29814 6.67565 12.652
31 1 3.74006 5.65533 5.77839
32 1 7.64075 12.3667 7.75101
33 1 2.57949 3.81144 2.08856
34 1 3.31976 13.3432 0.0677147
35 1 -0.0967938 5.37115 7.46928
36 1 11.1426 14.5448 7.59235
37 1 1.26174 14.8074 2.57217
38 1 6.41618 0.335516 13.3898
39 1 0.207637 9.92258 2.18818
40 1 12.6731 13.1901 12.8323
41 1 1.29363 11.9761 7.9846
42 1 13.2286 14.8362 0.439531
43 1 -0.123887 15.1905 5.01064
44 1 8.80795 12.7708 12.0788
45 1 12.4172 6.75949 6.79319
46 1 9.49869 10.6014 8.40823
47 1 10.544 10.9934 13.3575
48 1 8.99001 12.8372 5.44675
49 1 4.04829 1.51716 14.6149
50 1 6.69928 13.1999 13.7041
51 1 4.43379 6.10378 9.26553
52 1 11.4216 -0.0969869 13.0672
53 1 8.10878 14.4288 3.40524
54 1 4.3962 2.37166 3.28729
55 1 12.1316 11.4523 8.45349
56 1 8.7458 10.8517 -0.213292
57 1 1.53862 1.7361 8.48855
58 1 8.69585 5.89847 11.616
59 1 1.22107 9.19196 8.49846
60 1 10.635 10.5731 3.14594
61 1 11.4957 4.51089 15.2148
62 1 10.9209 6.7156 10.446
63 1 4.94638 10.4223 10.3546
64 1 7.94749 8.55464 1.09697
65 1 14.5919 7.80968 8.4877
66 1 5.26248 14.7619 3.62401
67 1 5.62202 2.26942 6.97039
68 1 1.29568 -0.0251437 10.348
69 1 11.6689 12.7598 1.5126
70 1 8.10674 4.34492 9.29769
71 1 15.2574 12.5827 5.71394
72 1 5.13758 11.4238 7.95676
73 1 0.807368 7.59384 14.5622
74 1 1.07308 4.35508 11.6836
75 1 -0.103901 0.899318 12.6958
76 1 12.4336 12.7126 5.99741
77 1 6.5124 0.898083 1.44852
78 1 5.22926 7.74021 7.34722
79 1 4.69818 3.85809 0.25821
80 1 14.6318 1.53081 0.260033
81 1 8.7843 1.26425 2.88569
82 1 10.1715 2.86217 10.2074
83 1 1.97586 4.56417 8.94346
84 1 12.6683 15.2799 4.82665
85 1 10.1623 4.44247 4.67024
86 1 8.26116 6.29332 15.2182
87 1 2.75694 2.33071 12.3211
88 1 10.1168 15.0402 10.6766
89 1 0.0214213 11.8389 0.424274
90 1 9.92368 3.73613 12.9889
91 1 7.93039 3.8304 3.09944
92 1 3.45334 12.7245 2.72154
93 1 13.7442 3.34545 8.32257
94 1 1.06378 7.50528 1.70711
95 1 13.5608 9.51663 12.896
96 1 6.16563 2.34739 9.6158
97 1 6.00658 4.12469 4.96415
98 1 13.0409 2.11594 12.6389
99 1 9.44842 7.22402 5.61094
100 1 3.08802 8.31472 10.412
101 1 4.27645 12.564 12.0172
102 1 0.247817 12.7339 12.6695
103 1 6.92237 8.32243 4.80264
104 1 10.2096 9.4039 11.0142
105 1 8.10819 14.6608 9.11245
106 1 0.724807 14.5893 14.8093
107 1 7.38606 3.87893 0.612739
108 1 13.59 6.17467 11.3541
109 1 6.57455 9.82429 14.0409
110 1 6.72525 7.05567 13.1783
111 1 3.66994 10.3273 5.96103
112 1 1.66543 1.60839 5.77048
113 1 9.05834 13.0173 1.11863
114 1 4.11235 0.213829 6.02437
115 1 10.3679 8.11545 2.36753
116 1 3.8208 14.5044 10.4834
117 1 6.27696 11.8524 2.07137
118 1 3.1417 11.1769 14.1451
119 1 12.971 3.21476 1.56998
120 1 12.4061 13.5738 10.1924
121 1 14.0948 6.56232 13.8874
122 1 11.4172 0.689063 2.37021
123 1 1.65778 1.52802 1.12949
124 1 7.74882 0.714644 6.86752
125 1 13.0368 10.8806 0.0461404
126 1 14.1536 3.59273 10.8941
127 1 12.9937 3.74289 4.44237
128 1 4.93288 10.2326 0.481908
129 2 4.52916 4.87676 12.9369
130 2 4.69703 5.06241 14.547
131 2 14.6886 4.58995 14.3163
132 2 0.0945933 3.63697 13.6264
133 2 7.74221 10.0755 4.24889
134 2 8.99342 10.7228 3.34745
135 2 0.788771 4.72927 4.53377
136 2 1.81069 3.95163 3.77685
137 2 14.4008 11.9252 10.4575
138 2 13.9069 10.7269 11.3647
139 2 10.6725 0.201823 0.765773
140 2 9.47367 0.652849 -0.0632908
141 2 13.5922 9.97565 6.76473
142 2 13.2152 10.5455 5.32572
143 2 3.67781 14.0964 8.7488
144 2 3.53939 14.3835 7.27865
145 2 3.09567 5.45978 2.78243
146 2 3.60518 6.19337 4.09913
147 2 5.08995 9.05489 1.76222
148 2 4.54185 7.79795 2.5309
149 2 13.4381 6.67871 2.59019
150 2 14.7355 6.25337 1.79471
151 2 0.77524 9.18308 14.2443
152 2 0.388115 10.6288 14.9234
153 2 14.1894 4.91997 4.56536
154 2 14.9228 6.4107 4.60147
155 2 10.8762 5.93786 7.61697
156 2 9.58879 6.53361 7.20672
157 2 12.1014 7.06547 4.8105
158 2 11.5829 7.27566 3.48345
159 2 9.70669 3.06202 7.62541
160 2 9.96186 3.35305 6.0781
161 2 3.89127 3.51534 11.556
162 2 5.31618 3.63484 11.0911
163 2 8.36256 9.80951 10.99
164 2 7.91946 11.2623 11.3115
165 2 7.80256 2.56448 14.9346
166 2 7.58248 1.21916 14.1315
167 2 6.10462 13.5421 -0.242407
168 2 4.85977 13.825 0.528199
169 2 14.4101 13.8153 10.1623
170 2 -0.0704958 13.4422 11.1966
171 2 11.7088 2.1063 6.54679
172 2 12.6961 1.18401 5.89058
173 2 10.9921 7.5299 13.3514
174 2 11.2636 8.01166 14.7268
175 2 1.57728 7.89927 5.7134
176 2 1.87051 8.36741 7.16573
177 2 11.4302 9.71213 6.20698
178 2 10.3486 10.1292 5.1128
179 2 14.4149 8.445 5.04536
180 2 0.00164071 8.8165 4.03796
181 2 1.02838 11.8189 4.67407
182 2 2.36173 10.8675 4.79517
183 2 6.32838 0.734699 10.265
184 2 5.21972 -0.301306 10.6492
185 2 12.568 9.37229 0.310345
186 2 12.8634 7.95827 0.824663
187 2 2.56428 7.41349 12.0109
188 2 3.14156 6.4193 13.0935
189 2 3.16723 6.41343 5.9805
190 2 3.10221 4.98312 5.63197
191 2 7.73547 13.1577 8.33842
192 2 8.06104 12.6116 6.87934
193 2 1.75422 3.38105 1.7562
194 2 3.25148 3.1727 2.47226
195 2 3.15037 12.6412 14.9757
196 2 3.16776 12.9566 0.983888
197 2 0.0720948 5.37286 6.52711
198 2 -0.245356 6.34024 7.61737
199 2 11.6512 14.8569 8.35832
200 2 11.802 13.9131 7.23812
201 2 2.07792 14.3411 2.56175
202 2 1.50629 0.044002 2.08403
203 2 6.3968 14.9261 13.4491
204 2 6.20534 0.425411 12.4267
205 2 0.660795 9.1318 1.85703
206 2 0.694078 10.391 2.87312
207 2 12.3708 14.0972 13.0916
208 2 12.1841 12.5232 13.366
209 2 2.09163 12.5603 7.87369
210 2 0.901668 12.2269 8.80367
211 2 13.6981 0.109016 0.335681
212 2 13.4443 14.3386 15.279
213 2 14.5376 15.2076 4.93591
214 2 0.228484 14.9795 4.13145
215 2 9.24837 13.4527 11.622
216 2 9.52013 12.2417 12.5392
217 2 12.875 7.30125 7.44426
218 2 13.1287 6.09272 6.70831
219 2 8.70364 11.2231 8.31889
220 2 9.67729 10.2938 7.51515
221 2 10.4955 10.2933 12.7118
222 2 10.0325 10.7711 14.1408
223 2 9.87115 13.0955 5.5737
224 2 8.95145 12.0108 4.93614
225 2 4.74251 0.928236 14.2575
226 2 3.48888 1.81195 13.8977
227 2 7.56401 13.1017 13.1985
228 2 6.02622 12.6782 13.2435
229 2 3.65548 5.64787 8.88705
230 2 4.53028 5.65688 10.1121
231 2 10.7483 -0.0654962 13.7661
232 2 11.7812 0.808853 13.0779
233 2 8.36482 -0.291862 3.46612
234 2 8.34757 14.0066 4.25098
235 2 5.1094 1.81781 2.95108
236 2 4.6411 2.96006 4.03817
237 2 12.5339 11.0417 9.22128
238 2 11.1841 11.2095 8.49369
239 2 8.60742 10.312 0.576946
240 2 8.69537 11.7883 0.0583599
241 2 1.42282 1.68337 7.50469
242 2 1.60998 2.65673 8.73322
243 2 8.87953 5.11923 12.1645
244 2 8.03029 6.40716 12.1505
245 2 1.95332 8.95172 9.16853
246 2 1.28006 10.1574 8.3047
247 2 11.2632 11.2403 2.79611
248 2 10.7957 9.70539 2.72449
249 2 11.5653 5.40273 -0.288322
250 2 11.1896 4.32648 14.2564
251 2 10.4204 6.65681 9.62663
252 2 10.2607 6.46258 11.0571
253 2 5.87632 10.1769 10.5904
254 2 4.94364 10.8143 9.46912
255 2 7.91802 7.6928 0.604333
256 2 7.17835 8.74025 1.63464
257 2 14.2008 7.92642 9.35992
258 2 -0.267797 8.44072 8.55252
259 2 6.16366 14.3915 3.8125
260 2 4.75946 14.0077 3.26281
261 2 6.35085 1.60272 6.90857
262 2 4.84301 1.75402 6.76165
263 2 1.34137 0.662419 9.62968
264 2 0.817817 14.7755 10.0578
265 2 10.8342 13.0339 1.10914
266 2 12.2496 13.5788 1.43103
267 2 7.99168 4.93257 10.0429
268 2 8.59208 4.87508 8.55834
269 2 -0.0863874 13.5026 5.64494
270 2 0.00602987 12.1735 6.56287
271 2 6.0476 11.6847 7.84187
272 2 4.65027 12.2574 7.8746
273 2 -0.10786 7.21382 14.4417
274 2 1.40859 7.20909 13.8607
275 2 1.10879 5.19843 12.1297
276 2 0.142322 4.18446 11.4107
277 2 0.192301 0.569522 11.8253
278 2 0.262058 0.216297 13.3227
279 2 13.325 12.966 5.76917
280 2 12.474 12.1815 6.79075
281 2 6.96454 1.33987 0.72514
282 2 6.22808 -0.0168944 1.14781
283 2 5.28424 6.95392 7.95734
284 2 5.69738 8.44349 7.79401
285 2 4.59695 2.96295 -0.156096
286 2 4.05776 3.8329 1.0606
287 2 14.2623 2.20361 0.861912
288 2 14.7961 2.02476 15.1013
289 2 7.90736 0.984376 2.41964
290 2 8.42535 2.08554 3.23522
291 2 9.33834 3.30929 9.83257
292 2 10.1754 1.88055 10.1119
293 2 1.75381 4.52695 9.90946
294 2 1.11552 4.78978 8.54253
295 2 12.2645 0.0873025 4.07993
296 2 12.0334 14.6435 5.15054
297 2 9.97133 5.30379 5.02216
298 2 9.51596 4.30903 3.95105
299 2 9.11176 6.41377 14.7882
300 2 7.57568 6.54 14.599
301 2 2.07189 2.92609 11.9449
302 2 2.69894 1.52435 11.845
303 2 10.8501 14.3815 10.4642
304 2 10.5118 -0.206863 11.478
305 2 0.274248 12.7719 0.61942
306 2 0.108425 11.2293 1.22179
307 2 9.70727 2.84376 13.3266
308 2 10.3129 3.49932 12.1129
309 2 7.16744 3.93944 3.6373
310 2 7.68964 3.77425 2.12389
311 2 2.7812 12.2345 3.34142
312 2 4.17512 12.108 2.65722
313 2 13.4252 2.63657 7.76521
314 2 14.4885 3.85196 7.85505
315 2 1.16553 7.50623 0.684607
316 2 1.80702 6.9489 2.01705
317 2 14.4305 9.58843 13.243
318 2 13.0187 10.0336 13.4694
319 2 5.70123 2.57075 8.68482
320 2 6.80813 3.05178 9.52933
321 2 5.35787 4.80808 5.12533
322 2 5.96938 3.53575 5.71789
323 2 13.0854 2.74416 13.3668
324 2 13.871 1.59988 12.7008
325 2 8.54415 7.16809 5.28465
326 2 9.76316 8.11779 5.62097
327 2 3.5805 7.58031 10.0651
328 2 3.76188 9.05652 10.3377
329 2 4.55808 11.8882 11.3243
330 2 3.56374 12.075 12.5347
331 2 0.334551 11.7965 12.6005
332 2 0.24849 12.8839 13.5924
333 2 6.35726 8.22802 5.65351
334 2 6.38531 8.12785 4.02112
335 2 10.214 9.5859 10.0692
336 2 10.6644 8.57403 11.1276
337 2 8.95214 14.8857 9.64428
338 2 7.3584 14.7538 9.70982
339 2 0.591563 15.0693 0.0182509
340 2 1.70203 14.3696 14.7724
341 2 6.4741 3.89198 0.306924
342 2 7.8908 4.74294 0.474307
343 2 13.7745 5.25403 11.174
344 2 12.6407 6.3597 11.1641
345 2 6.61181 10.3071 13.1711
346 2 7.38294 10.2018 14.4287
347 2 5.92965 6.53312 13.3142
348 2 6.65131 8.00804 13.4902
349 2 4.1508 10.9057 6.58172
350 2 3.72612 9.43762 6.27968
351 2 0.960879 1.05271 5.33877
352 2 1.48012 2.49213 5.40543
353 2 8.71011 13.4532 1.93204
354 2 8.99593 13.78 0.520382
355 2 3.28533 0.709593 5.89467
356 2 4.52263 -0.105961 5.1872
357 2 10.8957 8.12501 1.5533
358 2 9.392 8.09909 2.00114
359 2 2.85608 14.8006 10.6062
360 2 3.90293 13.7417 11.0449
361 2 6.48734 12.6937 1.54518
362 2 7.04029 11.6822 2.67807
363 2 2.24681 10.7375 14.3261
364 2 3.668 10.6767 14.8241
365 2 12.3482 3.69431 0.972113
366 2 13.2921 3.83378 2.19605
367 2 12.5073 12.8061 9.60602
368 2 12.5354 13.311 11.1419
369 2 13.9506 6.55755 12.8999
370 2 13.4462 7.1125 14.3857
371 2 11.8334 1.45816 2.05064
372 2 10.4376 0.894116 2.52875
373 2 0.844146 1.54638 0.605455
374 2 2.39804 1.38307 0.478242
375 2 7.77884 0.12269 7.66547
376 2 8.60235 1.23456 6.91956
377 2 12.4122 11.5105 0.551261
378 2 13.9301 11.2794 0.187093
379 2 13.8259 3.47873 9.96028
380 2 13.5184 3.1733 11.5056
381 2 12.9666 3.11167 5.2382
382 2 12.0906 4.05916 4.29522
383 2 5.48443 10.7696 1.07083
384 2 5.47524 10.05 -0.286949
ITEM: TIMESTEP
200
ITEM: NUMBER OF ATOMS
384
ITEM: BOX BOUNDS pp pp pp
-2.1868351273538700e-01 1.5218683512735430e+01
-2.1868351273538700e-01 1.5218683512735430e+01
-2.1868351273538700e-01 1.5218683512735430e+01
ITEM: ATOMS id type x y z
1 1 4.47216 5.53759 13.1348
2 1 14.4819 3.887 13.8464
3 1 7.64228 10.681 3.80233
4 1 1.72584 3.75676 4.59383
5 1 13.6828 10.1748 10.3733
6 1 9.98128 0.223593 -0.026853
7 1 13.3034 9.64722 6.06651
8 1 3.34977 13.4867 7.57987
9 1 3.14433 6.53008 2.85951
10 1 5.45177 7.85769 2.57887
11 1 13.7465 6.55324 1.8745
12 1 0.606877 10.0599 13.7082
13 1 14.9196 5.41541 4.87779
14 1 9.88372 5.91497 7.82724
15 1 12.2047 6.99173 4.02192
16 1 9.87647 2.73797 6.78805
17 1 4.74366 3.9158 11.2864
18 1 7.37239 10.3703 11.2762
19 1 8.40299 1.88624 14.3949
20 1 5.83483 13.8903 0.56304
21 1 -0.100689 13.331 9.99512
22 1 12.5387 1.84279 6.23356
23 1 10.6427 7.13387 14.1878
24 1 1.98929 7.84224 6.3034
25 1 10.4784 9.17076 5.7722
26 1 15.1136 8.15109 4.71501
27 1 1.7877 11.4893 4.38629
28 1 5.93554 0.300789 10.6005
29 1 12.2457 8.0434 0.32396
30 1 2.20482 6.50722 12.3142
31 1 3.5708 5.70687 5.31657
32 1 7.68302 11.9239 7.84479
33 1 3.17397 3.57215 2.14437
34 1 3.1189 13.2251 0.186324
35 1 -0.104021 5.36073 7.60452
36 1 10.6507 14.5783 7.38162
37 1 1.19855 14.5002 2.25413
38 1 6.0585 0.453403 13.321
39 1 0.486625 9.86683 2.81701
40 1 12.2123 13.0502 12.5442
41 1 0.93327 12.2513 8.03653
42 1 13.4962 14.298 0.220015
43 1 -0.0537736 14.9919 4.50568
44 1 8.52706 12.7741 11.7449
45 1 12.4595 6.35758 6.80335
46 1 9.72258 10.328 8.14882
47 1 10.3814 10.9953 12.853
48 1 8.80425 12.4594 5.34715
49 1 3.92567 1.67629 14.2014
50 1 6.43208 13.2245 13.4408
51 1 4.13797 5.96427 9.36187
52 1 11.2086 -0.0542492 13.0853
53 1 7.56378 14.1893 3.52296
54 1 4.69063 2.0338 3.48742
55 1 12.2212 11.3046 8.35435
56 1 8.84103 10.408 -0.177233
57 1 1.66393 1.78405 8.33103
58 1 8.43652 5.59381 11.5671
59 1 1.16442 9.12057 8.50533
60 1 10.4023 10.4154 3.31054
61 1 11.59 4.35675 14.8492
62 1 10.5344 6.88505 10.4745
63 1 4.91823 10.2711 10.1225
64 1 8.01797 8.06503 1.33669
65 1 14.3249 7.51599 8.64153
66 1 4.88714 14.7918 3.67935
67 1 5.7591 1.94727 6.85568
68 1 1.35565 0.370109 10.3232
69 1 11.5587 12.4593 1.66914
70 1 8.32351 4.21195 9.31086
71 1 15.198 12.5888 5.65293
72 1 4.92465 11.2917 7.59592
73 1 0.922648 7.49334 14.3004
74 1 1.12573 4.2064 11.8464
75 1 -0.0920313 0.583756 12.7326
76 1 12.3595 12.4736 6.02685
77 1 6.23382 1.01008 1.47737
78 1 5.55763 8.0409 6.9945
79 1 4.60532 3.9934 -0.218008
80 1 14.6046 1.72915 0.300398
81 1 8.51298 1.26927 2.6942
82 1 10.1328 2.6193 10.2647
83 1 1.90937 4.30343 8.87867
84 1 12.6623 15.0426 4.26041
85 1 10.1741 4.77088 4.88162
86 1 8.30644 6.32322 14.9423
87 1 2.76753 2.23367 12.0322
88 1 9.98803 14.8027 10.8297
89 1 15.1626 11.2769 0.726926
90 1 9.6639 3.58079 12.763
91 1 7.99287 3.84983 3.53878
92 1 3.3394 12.6699 2.73425
93 1 13.5272 3.55323 8.14544
94 1 0.757575 7.57152 1.69852
95 1 13.3441 9.97357 12.7758
96 1 6.19223 2.78316 9.2961
97 1 5.80636 3.83075 5.17231
98 1 13.0471 1.838 12.6419
99 1 8.99075 7.02168 5.47066
100 1 3.07951 8.17737 10.2674
101 1 4.39725 12.2207 12.0461
102 1 0.53919 12.6695 12.4324
103 1 6.81092 8.4971 4.69428
104 1 9.78162 9.52019 10.8104
105 1 7.8431 14.5371 9.04212
106 1 0.833347 14.4062 14.5721
107 1 7.38281 3.9345 0.421422
108 1 13.3327 6.5957 10.7911
109 1 6.72166 9.56651 13.7005
110 1 6.71974 6.90623 13.0682
111 1 3.56462 9.85614 5.61101
112 1 1.53989 1.20054 5.71792
113 1 9.10013 13.2748 1.03371
114 1 3.91058 0.127889 6.14473
115 1 10.4445 8.0682 2.2887
116 1 3.75995 14.2534 10.3205
117 1 5.68529 11.6015 2.19284
118 1 3.18394 11.0424 14.1626
119 1 12.3688 2.98647 1.58394
120 1 12.456 13.6077 10.0596
121 1 13.8733 6.56632 13.6424
122 1 11.1799 0.927919 2.49065
123 1 1.70598 1.3422 1.0935
124 1 8.06248 0.626433 6.65198
125 1 12.6691 10.6215 -0.142291
126 1 13.9756 3.82008 10.7725
127 1 12.6126 4.12973 4.10729
128 1 4.9534 9.72613 0.416495
129 2 4.71506 4.966 12.2627
130 2 4.34951 5.13715 14.0732
131 2 14.192 4.89023 13.7816
132 2 -0.126328 3.72526 13.1313
133 2 7.07774 9.80321 4.17278
134 2 8.46522 10.47 3.40382
135 2 0.9858 4.29138 4.47831
136 2 1.99196 3.78402 3.67676
137 2 14.4755 10.761 10.2997
138 2 13.5247 10.0168 11.3574
139 2 10.3461 0.532617 0.85948
140 2 9.27493 0.97064 15.0167
141 2 13.5109 9.41553 7.09373
142 2 13.0309 10.6487 5.98352
143 2 3.41795 13.8926 8.53421
144 2 3.68853 14.2597 6.98949
145 2 3.31961 5.80349 2.18021
146 2 3.20249 6.07834 3.80856
147 2 5.2541 8.51317 2.06723
148 2 4.65758 7.25711 2.6553
149 2 13.282 6.62005 2.75022
150 2 14.5692 7.21787 1.91544
151 2 0.902971 9.16218 13.7678
152 2 0.543047 10.4044 14.6938
153 2 14.2026 4.96805 4.30181
154 2 15.0394 6.42381 4.64585
155 2 10.7583 6.10935 7.43177
156 2 9.20703 6.36928 7.25948
157 2 12.5227 6.93548 4.99884
158 2 11.4267 7.57881 3.72725
159 2 9.7125 2.95736 7.66939
160 2 10.0289 3.599 6.45062
161 2 4.05702 3.17169 11.5961
162 2 5.44932 3.60251 10.5574
163 2 8.28398 9.93692 11.0503
164 2 7.64427 11.3136 11.2121
165 2 8.19792 2.69265 14.9757
166 2 7.60211 1.76163 13.8347
167 2 6.30476 13.3649 15.1931
168 2 5.01704 13.746 0.188263
169 2 14.4613 13.479 9.82366
170 2 0.0859429 12.9651 11.3134
171 2 11.5356 2.01529 6.37532
172 2 12.764 1.1517 5.6697
173 2 10.8058 7.37197 13.2169
174 2 11.2644 7.45203 14.8605
175 2 1.29211 7.82098 5.68426
176 2 1.57392 8.23724 7.18016
177 2 11.4351 8.9383 5.83857
178 2 10.4345 9.81254 4.99939
179 2 14.4078 8.62086 5.22604
180 2 -0.162673 8.66714 3.93319
181 2 1.25035 11.8451 5.03534
182 2 2.48534 10.9084 4.85896
183 2 6.15535 1.03778 10.0638
184 2 5.05348 -0.196054 10.5604
185 2 12.6129 8.81268 -0.022595
186 2 12.9321 7.37263 0.747841
187 2 2.48771 7.19968 11.4091
188 2 3.29229 6.3661 12.766
189 2 3.08928 6.4701 5.61979
190 2 2.96204 5.00114 5.16087
191 2 7.79555 12.8417 8.1404
192 2 8.07145 12.2642 7.04475
193 2 2.68104 2.97823 1.63428
194 2 3.63092 3.14688 2.81834
195 2 3.02279 12.4233 15.1376
196 2 2.98491 13.1011 1.05004
197 2 15.1762 5.34696 6.47034
198 2 14.9516 6.2683 8.12167
199 2 11.2915 -0.115304 7.39285
200 2 11.0845 13.8926 6.97725
201 2 2.09511 14.1812 2.42939
202 2 1.28969 -0.0197439 1.89374
203 2 6.16354 14.9204 13.4557
204 2 5.88085 0.567564 12.3601
205 2 1.00666 9.30866 2.33251
206 2 1.04797 10.4412 3.32096
207 2 11.6128 13.8295 12.7808
208 2 11.6167 12.2973 12.6444
209 2 1.69685 12.9362 7.96525
210 2 0.399322 12.755 8.72928
211 2 13.5056 15.1225 0.361844
212 2 13.4231 13.8658 14.7916
213 2 14.3874 15.0689 4.14725
214 2 0.642177 14.8658 3.70252
215 2 8.86123 13.602 11.2571
216 2 9.23474 12.384 12.2835
217 2 12.9313 6.85911 7.53722
218 2 12.85 5.41923 6.7767
219 2 8.79181 10.7783 8.25666
220 2 9.7792 9.72075 7.28466
221 2 10.3904 10.4069 11.9345
222 2 9.93527 10.72 13.7641
223 2 9.88879 12.3461 5.19233
224 2 8.37119 11.6934 5.01447
225 2 4.84041 1.20145 13.9264
226 2 3.30082 1.78136 13.3297
227 2 7.26763 12.9203 13.0253
228 2 5.72147 12.8029 13.0068
229 2 3.27318 5.42389 9.05671
230 2 4.59554 5.46763 10.0526
231 2 10.8856 0.173965 13.948
232 2 11.9893 0.712589 12.85
233 2 7.81576 15.0848 3.57003
234 2 8.14082 13.6431 4.18951
235 2 5.31342 1.39691 2.90165
236 2 5.2314 2.61518 3.98527
237 2 12.5635 10.7507 9.17472
238 2 11.5316 10.6443 8.21867
239 2 8.64206 9.76388 0.642388
240 2 8.75722 11.2173 0.275453
241 2 1.43425 1.46383 7.31666
242 2 1.84935 2.76471 8.44831
243 2 8.86705 4.89502 12.0076
244 2 7.82353 6.11136 12.2695
245 2 1.82733 8.98497 9.27463
246 2 1.15498 10.0263 8.52649
247 2 10.9549 11.1356 2.83693
248 2 10.5188 9.60235 2.96339
249 2 11.1864 5.26625 14.8354
250 2 11.0826 4.01163 14.2466
251 2 10.4967 6.28901 9.70708
252 2 9.80776 6.35187 11.0689
253 2 5.77623 10.1905 10.5851
254 2 4.79561 10.7499 9.25988
255 2 7.82425 7.27008 0.808191
256 2 7.20873 7.86074 1.82676
257 2 13.8403 7.18169 9.51337
258 2 14.8238 8.33859 8.78783
259 2 5.83217 14.4982 3.83759
260 2 4.55043 13.9252 3.38218
261 2 6.73605 1.47568 6.70659
262 2 5.23021 1.25286 6.80092
263 2 1.15515 0.717871 9.50861
264 2 0.621283 15.0489 10.357
265 2 10.5916 12.8597 1.33745
266 2 12.358 13.0739 1.70278
267 2 8.18789 4.67271 10.1349
268 2 8.74845 4.83753 8.60407
269 2 -0.14935 13.5263 5.21187
270 2 0.0872639 12.4773 6.58102
271 2 5.83613 11.4907 7.53786
272 2 4.35309 12.186 7.65663
273 2 0.0607351 7.13369 14.5002
274 2 1.31427 7.02411 13.5609
275 2 1.47977 5.15141 11.9661
276 2 0.137994 4.36401 11.3597
277 2 0.546087 0.766399 11.7673
278 2 0.622191 0.43266 13.4613
279 2 13.2752 12.5495 5.86541
280 2 12.2969 12.037 7.00982
281 2 6.34682 1.34859 0.578199
282 2 5.94013 0.147423 1.3222
283 2 5.0246 7.31223 7.38481
284 2 5.08306 8.77259 7.30111
285 2 4.35176 3.04462 14.787
286 2 4.18384 3.94973 0.780249
287 2 13.9507 2.25327 0.828447
288 2 14.7282 2.41569 14.9974
289 2 7.7192 1.22917 2.16365
290 2 8.33711 2.1193 3.13478
291 2 9.43392 3.09025 9.666
292 2 10.3077 1.69016 10.1327
293 2 1.65124 4.19595 9.8584
294 2 1.10489 4.8964 8.40503
295 2 11.8873 0.103156 3.59635
296 2 12.3404 14.1949 4.66535
297 2 10.0721 5.72298 4.96394
298 2 9.56383 4.3295 4.31516
299 2 9.23161 6.88748 14.6174
300 2 7.55242 6.29615 14.3172
301 2 2.17072 2.9278 12.1994
302 2 2.5057 1.54328 11.2943
303 2 10.8384 14.4206 10.4262
304 2 10.3855 -0.155763 11.6204
305 2 15.217 12.2906 0.857279
306 2 0.106645 10.8493 1.6164
307 2 9.27088 2.71395 13.2206
308 2 10.2856 3.30371 12.1447
309 2 7.21123 4.03265 4.22077
310 2 7.92349 4.23584 2.62849
311 2 2.88705 12.3615 3.39571
312 2 4.17766 12.0271 2.81477
313 2 13.2657 2.76244 7.51119
314 2 14.3924 3.89716 7.91579
315 2 0.993276 7.43417 0.860289
316 2 1.59807 7.0276 2.08975
317 2 14.1623 10.167 13.0124
318 2 12.8366 10.3021 13.5955
319 2 6.01275 2.56945 8.33259
320 2 7.0255 3.2082 9.24444
321 2 5.11868 4.50821 5.12343
322 2 5.62373 2.95824 5.95312
323 2 13.1464 2.47872 13.3464
324 2 13.8713 1.50043 12.7545
325 2 8.23054 7.35939 5.04123
326 2 9.44491 7.83398 5.66315
327 2 3.45936 7.35688 9.96388
328 2 3.85058 8.87055 10.4459
329 2 4.70091 11.5898 11.3107
330 2 3.89026 11.8624 12.7453
331 2 0.274523 11.7731 12.6537
332 2 0.602151 13.306 13.0224
333 2 6.31029 8.38291 5.64628
334 2 6.20435 8.05614 3.94174
335 2 9.72323 10.0172 9.98009
336 2 9.98366 8.62651 10.7444
337 2 8.75494 14.8473 9.41142
338 2 7.14719 14.611 9.68283
339 2 0.0791547 14.4141 -0.154886
340 2 1.60553 14.143 15.2044
341 2 6.44689 4.05247 0.259108
342 2 7.72617 4.77767 0.24381
343 2 13.3244 5.57333 10.7049
344 2 12.5361 6.97552 10.7896
345 2 6.89167 10.0534 12.6931
346 2 7.58288 9.62286 14.0891
347 2 5.99835 6.34939 13.0759
348 2 6.69045 7.88087 13.3745
349 2 3.83846 10.4554 6.2386
350 2 3.10166 8.89553 5.85921
351 2 0.939936 0.439736 5.40141
352 2 1.48966 1.95859 5.11998
353 2 8.77818 13.4749 1.77942
354 2 9.45744 14.2425 0.658718
355 2 3.16811 0.451356 5.74523
356 2 4.16408 -0.212865 5.28233
357 2 10.9528 7.85248 1.35759
358 2 9.46125 7.92907 1.96026
359 2 2.88451 14.8334 10.2526
360 2 3.63147 13.6223 10.9516
361 2 6.07819 12.6745 2.07458
362 2 6.29294 11.2432 2.97298
363 2 2.24743 10.5229 14.2149
364 2 3.85319 10.6209 14.6402
365 2 11.7219 3.45577 0.864897
366 2 12.5152 3.62076 2.31875
367 2 12.2478 12.8826 9.31812
368 2 12.6168 13.3045 11.041
369 2 13.8104 6.78071 12.6701
370 2 13.1682 6.76319 14.1564
371 2 11.7163 1.7112 2.19758
372 2 10.3665 1.09747 2.74744
373 2 0.866833 1.59307 0.699552
374 2 2.12878 1.17472 0.21254
375 2 8.11584 -0.0517007 7.49857
376 2 8.9641 1.17225 6.7495
377 2 12.1585 11.1752 0.49665
378 2 13.5246 10.9555 0.105291
379 2 14.0896 3.68975 9.86505
380 2 13.5565 2.89176 11.1478
381 2 12.6581 3.27379 4.63364
382 2 11.7532 4.55398 4.45603
383 2 5.34291 10.5467 0.792058
384 2 5.5772 9.32301 15.1906
ITEM: TIMESTEP
400
ITEM: NUMBER OF ATOMS
384
ITEM: BOX BOUNDS pp pp pp
-1.3021218416963443e-01 1.5130212184169675e+01
-1.3021218416963443e-01 1.5130212184169675e+01
-1.3021218416963443e-01 1.5130212184169675e+01
ITEM: ATOMS id type x y z
1 1 4.5342 5.38137 12.5576
2 1 14.6043 3.87817 14.0979
3 1 7.23807 10.8289 3.40199
4 1 1.70914 3.51139 4.40016
5 1 13.5506 9.62609 9.90043
6 1 9.46184 -0.0456709 15.0393
7 1 13.3775 9.7141 6.40664
8 1 3.45342 13.0314 7.95797
9 1 3.42278 6.07688 2.48063
10 1 5.5848 7.52643 2.1074
11 1 13.8277 6.69507 1.94486
12 1 0.688985 10.0848 13.9693
13 1 -0.129807 5.26013 4.85581
14 1 9.64192 6.4666 8.09069
15 1 12.2416 6.76245 4.46022
16 1 10.2172 2.63147 6.73164
17 1 4.64799 3.80632 10.6348
18 1 6.87494 10.4926 11.1658
19 1 7.93246 2.03287 14.4259
20 1 5.81267 13.5753 0.541924
21 1 -0.124147 13.3573 10.0176
22 1 12.2617 1.93023 5.66073
23 1 10.7625 6.43761 13.4374
24 1 2.01234 7.98863 6.46642
25 1 10.6805 9.05525 5.72633
26 1 14.9709 7.88603 4.77707
27 1 1.63467 11.2432 4.44676
28 1 5.95785 0.559489 10.4185
29 1 12.2568 7.87625 0.0841693
30 1 2.06522 6.4103 12.0722
31 1 3.29036 5.70202 5.24387
32 1 7.51774 12.0084 7.80008
33 1 3.26004 3.40612 1.93015
34 1 3.26413 12.9487 0.0256523
35 1 0.0139114 4.97671 7.47005
36 1 10.5104 14.6919 7.3415
37 1 0.997583 14.2074 1.79251
38 1 5.94647 0.921914 13.077
39 1 0.387076 9.72934 2.80648
40 1 12.2981 12.9839 12.4366
41 1 1.16069 11.9924 8.11966
42 1 13.5199 13.8728 15.1268
43 1 15.1209 14.8629 4.12074
44 1 8.36018 12.7993 11.9419
45 1 12.0397 5.98466 7.12644
46 1 9.70524 10.3415 7.93113
47 1 10.1247 10.9652 12.8134
48 1 8.52166 12.3839 5.40225
49 1 3.69057 1.75 13.9568
50 1 6.13694 13.4265 13.189
51 1 4.11007 6.14524 8.72932
52 1 11.1729 0.0884328 12.8545
53 1 7.37575 13.9837 3.54759
54 1 4.58227 2.13551 3.71931
55 1 12.1491 11.2376 8.55385
56 1 8.87424 10.1914 -0.0315485
57 1 2.0669 1.46463 8.20576
58 1 8.52719 5.24721 11.6421
59 1 0.711523 9.43714 8.81786
60 1 10.1053 10.6058 3.60955
61 1 11.5917 3.91431 14.3902
62 1 10.0812 7.0524 10.4957
63 1 4.64632 10.1264 9.73154
64 1 8.18441 8.11556 1.51291
65 1 14.0412 7.25366 8.11325
66 1 4.88026 14.7094 3.71056
67 1 5.77987 1.74222 6.45188
68 1 1.44899 0.133687 10.3101
69 1 11.1864 12.574 1.93184
70 1 8.78937 3.96378 9.22701
71 1 15.0162 12.5997 5.63705
72 1 4.97714 11.1117 7.21297
73 1 0.793135 7.55557 14.1751
74 1 0.536767 4.15092 11.5938
75 1 15.0593 0.751687 12.6509
76 1 12.3637 12.7543 6.0103
77 1 6.29141 0.998647 1.17684
78 1 5.56968 8.03845 7.45289
79 1 4.72659 4.02712 15.0419
80 1 14.5872 1.72721 0.577024
81 1 8.15392 1.24213 2.97735
82 1 10.3477 1.97211 10.5499
83 1 2.03098 4.20403 8.84853
84 1 12.3745 14.9637 4.33571
85 1 9.77811 4.57827 4.95765
86 1 8.29787 6.118 14.8152
87 1 2.61509 2.23755 11.5271
88 1 10.1785 14.5544 10.6554
89 1 14.8116 11.3634 1.02613
90 1 9.60827 3.22982 12.6682
91 1 7.61532 3.73275 3.49127
92 1 3.0935 12.7233 2.81106
93 1 13.1352 3.65169 7.8764
94 1 1.27409 7.66779 1.64793
95 1 13.2576 9.85221 12.606
96 1 6.43777 2.86278 8.90028
97 1 6.05637 4.44198 5.55868
98 1 12.8077 2.17696 12.4456
99 1 8.73734 7.22655 5.74625
100 1 2.83161 8.11733 9.9444
101 1 4.25007 12.0843 11.7793
102 1 1.0488 12.2608 12.1199
103 1 6.51214 8.4296 4.63352
104 1 9.26135 9.49203 10.6282
105 1 7.56904 14.4457 8.71529
106 1 0.981671 13.9673 14.0621
107 1 7.08424 3.98859 1.0029
108 1 12.5446 6.53154 11.0399
109 1 6.95582 9.45709 13.6222
110 1 6.79215 6.93324 12.7421
111 1 3.81762 9.65968 5.12013
112 1 1.40584 1.085 5.68686
113 1 8.74332 12.9624 1.23491
114 1 3.63321 14.9999 6.33548
115 1 10.7164 8.23514 2.59064
116 1 3.86143 14.2047 10.1374
117 1 5.18828 11.3312 1.8
118 1 3.24006 10.796 13.9866
119 1 12.1591 2.94597 1.71172
120 1 12.3832 13.4735 9.74987
121 1 13.7747 6.66598 13.3462
122 1 10.8259 0.727605 2.42501
123 1 1.83174 1.53575 0.880434
124 1 8.21306 0.704953 6.01979
125 1 12.3257 10.4324 0.171334
126 1 13.3416 4.0359 10.6
127 1 12.9433 3.98417 4.353
128 1 4.69943 9.44033 0.180929
129 2 4.56052 4.61586 11.8249
130 2 4.47811 4.78376 13.4689
131 2 14.0293 4.667 14.2073
132 2 0.0600132 4.07014 13.4593
133 2 7.04187 9.84759 3.96052
134 2 8.05567 10.6418 3.08763
135 2 1.12525 4.29345 4.48664
136 2 2.1798 3.40994 3.46923
137 2 14.509 9.49472 9.6641
138 2 13.3296 9.50427 11.0932
139 2 9.9525 0.260017 0.588768
140 2 8.82037 0.655367 14.8879
141 2 13.2112 10.0441 7.29632
142 2 13.3798 10.5236 6.01928
143 2 3.67649 13.5676 8.74546
144 2 3.30434 13.5758 7.20088
145 2 3.12521 5.10493 2.32299
146 2 3.26556 5.99139 3.51839
147 2 5.16879 8.27889 1.56494
148 2 4.75791 7.05893 2.28759
149 2 13.3833 6.69316 2.85501
150 2 14.7676 6.88321 2.182
151 2 0.831373 8.93897 14.0976
152 2 0.0886346 10.476 14.6994
153 2 14.0296 4.80516 4.55298
154 2 15.1003 6.29844 4.72886
155 2 10.4223 5.89039 7.60175
156 2 8.99988 6.95623 7.3734
157 2 12.1757 6.71628 5.42367
158 2 11.5671 7.36054 4.13808
159 2 9.78448 2.8595 7.65176
160 2 10.142 3.40381 6.20335
161 2 3.88532 3.19351 10.9217
162 2 5.11834 3.49133 9.86297
163 2 7.71992 9.84697 10.8089
164 2 7.22444 11.5589 11.0394
165 2 7.73915 2.65571 15.0879
166 2 7.19723 1.73028 14.0401
167 2 6.04654 13.4319 14.8273
168 2 4.76898 13.4091 0.295435
169 2 14.1993 13.3677 9.86032
170 2 -0.0723093 13.077 10.9246
171 2 11.5347 1.94907 6.29894
172 2 12.4813 1.06703 5.37787
173 2 11.2667 6.13566 12.7558
174 2 11.2343 6.83618 14.1406
175 2 1.34238 8.00073 5.89186
176 2 1.82391 8.3672 7.20395
177 2 11.6137 9.1366 5.80563
178 2 10.5886 9.46291 4.75963
179 2 14.1769 8.16917 5.05216
180 2 -0.0102515 8.54456 4.11522
181 2 1.2929 11.8849 5.10653
182 2 2.32286 10.676 5.0647
183 2 6.37978 1.28095 9.8565
184 2 5.24802 0.0251769 10.2046
185 2 12.4302 8.89204 0.121574
186 2 12.7857 7.33824 0.594531
187 2 2.37422 7.10614 11.5179
188 2 2.93946 5.86823 12.1625
189 2 2.86543 6.44276 5.71993
190 2 2.77445 4.86114 5.06529
191 2 7.29852 12.7483 8.2296
192 2 7.87177 12.3088 6.88325
193 2 2.58144 2.62336 1.55767
194 2 3.88666 2.73201 2.19013
195 2 3.27495 11.9746 14.7634
196 2 3.19568 12.897 0.929457
197 2 0.017697 5.22637 6.34845
198 2 15.0149 5.78976 7.82689
199 2 10.835 14.8878 8.17592
200 2 11.4964 14.3302 6.84696
201 2 1.90807 13.5407 2.01767
202 2 1.45097 15.1068 1.43944
203 2 6.10398 -0.0308055 13.3679
204 2 6.14051 0.898627 11.9686
205 2 1.01548 9.10773 2.32642
206 2 1.07687 10.267 3.33131
207 2 11.8636 13.7289 12.6827
208 2 11.7295 12.2292 12.6517
209 2 2.02878 12.349 8.05466
210 2 0.709907 12.3732 8.959
211 2 13.5853 14.9077 14.9028
212 2 13.184 13.533 14.3723
213 2 14.137 15.0747 4.21431
214 2 0.170329 14.625 3.16534
215 2 8.93569 13.3242 11.4655
216 2 8.96006 12.0271 12.2071
217 2 12.5264 6.61044 7.81229