ITEM: TIMESTEP
0
ITEM: NUMBER OF ATOMS
384
ITEM: BOX BOUNDS pp pp pp
0.0000000000000000e+00 1.5645677530000000e+01
0.0000000000000000e+00 1.4707145290000000e+01
0.0000000000000000e+00 1.8073037029999998e+01
ITEM: ATOMS id type x y z
1 1 1.38 1.76 3.37
2 1 5.2 4.47 1.11
3 1 6.59 5.39 3.31
4 1 5.28 4.49 5.56
5 1 2.59 0.84 5.67
6 1 2.69 5.43 5.56
7 1 5.2 1.71 1.07
8 1 5.2 1.73 5.58
9 1 1.32 4.61 7.82
10 1 1.3 4.52 3.36
11 1 2.61 5.41 1.1
12 1 2.59 0.82 1.07
13 1 6.54 0.87 3.33
14 1 6.54 0.88 7.83
15 1 6.51 5.4 7.86
16 1 1.35 1.85 7.92
17 1 9.2 1.76 3.37
18 1 13.05 4.55 1.15
19 1 14.35 5.46 3.4
20 1 13.1 4.49 5.66
21 1 10.41 0.84 5.67
22 1 10.51 5.43 5.65
23 1 13.07 1.79 1.07
24 1 13.02 1.73 5.58
25 1 9.15 4.61 7.91
26 1 9.2 4.52 3.4
27 1 10.45 5.49 1.15
28 1 10.49 0.82 1.12
29 1 14.36 0.87 3.33
30 1 14.36 0.88 7.83
31 1 14.36 5.48 7.9
32 1 9.17 1.85 7.92
33 1 1.3 9.11 3.32
34 1 5.3 11.9 1.11
35 1 6.53 12.81 3.4
36 1 5.2 11.84 5.61
37 1 2.59 8.19 5.58
38 1 2.61 12.79 5.61
39 1 5.25 9.14 1.16
40 1 5.2 9.08 5.67
41 1 1.32 11.96 7.91
42 1 1.38 11.87 3.31
43 1 2.69 12.77 1.06
44 1 2.67 8.17 1.12
45 1 6.49 8.14 3.42
46 1 6.49 8.16 7.92
47 1 6.53 12.83 7.81
48 1 1.35 9.21 7.83
49 1 9.09 9.19 3.37
50 1 13.13 11.9 1.11
51 1 14.44 12.82 3.35
52 1 13.1 11.84 5.56
53 1 10.41 8.19 5.58
54 1 10.51 12.79 5.65
55 1 12.99 9.14 1.12
56 1 13.02 9.08 5.67
57 1 9.12 11.89 7.86
58 1 9.15 11.95 3.4
59 1 10.51 12.77 1.15
60 1 10.38 8.25 1.12
61 1 14.29 8.22 3.37
62 1 14.36 8.24 7.92
63 1 14.36 12.83 7.81
64 1 9.12 9.13 7.83
65 1 1.35 1.83 12.45
66 1 5.2 4.47 10.14
67 1 6.59 5.39 12.34
68 1 5.3 4.56 14.65
69 1 2.67 0.84 14.66
70 1 2.69 5.43 14.6
71 1 5.28 1.71 10.15
72 1 5.25 1.81 14.61
73 1 1.32 4.61 16.85
74 1 1.32 4.59 12.35
75 1 2.63 5.49 10.09
76 1 2.64 0.89 10.2
77 1 6.57 0.79 12.41
78 1 6.54 0.88 16.87
79 1 6.53 5.48 16.94
80 1 1.35 1.85 16.86
81 1 9.2 1.76 12.41
82 1 13.02 4.47 10.14
83 1 14.35 5.46 12.34
84 1 13.05 4.57 14.6
85 1 10.46 0.91 14.71
86 1 10.46 5.51 14.69
87 1 13.1 1.71 10.15
88 1 13.07 1.81 14.61
89 1 9.15 4.61 16.94
90 1 9.2 4.52 12.44
91 1 10.45 5.49 10.18
92 1 10.49 0.82 10.16
93 1 14.39 0.79 12.41
94 1 14.36 0.88 16.87
95 1 14.33 5.4 16.89
96 1 9.17 1.85 16.96
97 1 1.3 9.11 12.45
98 1 5.28 11.83 10.1
99 1 6.59 12.74 12.34
100 1 5.3 11.92 14.65
101 1 2.59 8.19 14.71
102 1 2.69 12.79 14.6
103 1 5.2 9.07 10.2
104 1 5.17 9.16 14.66
105 1 1.38 11.89 16.85
106 1 1.38 11.87 12.35
107 1 2.71 12.84 10.14
108 1 2.56 8.25 10.16
109 1 6.49 8.14 12.46
110 1 6.46 8.24 16.91
111 1 6.61 12.83 16.89
112 1 1.3 9.13 16.96
113 1 9.09 9.19 12.41
114 1 13.13 11.9 10.14
115 1 14.41 12.74 12.44
116 1 13.1 11.84 14.69
117 1 10.38 8.27 14.66
118 1 10.53 12.86 14.64
119 1 12.99 9.14 10.15
120 1 13.02 9.08 14.7
121 1 9.23 11.96 16.9
122 1 9.23 11.95 12.39
123 1 10.51 12.77 10.09
124 1 10.38 8.25 10.16
125 1 14.29 8.22 12.41
126 1 14.31 8.16 16.96
127 1 14.44 12.83 16.89
128 1 9.09 9.21 16.91
129 2 0.46 1.48 3.37
130 2 1.33 2.71 3.37
131 2 5.68 4.81 1.86
132 2 5.67 4.81 0.35
133 2 6.13 5.1 4.1
134 2 6.56 6.34 3.34
135 2 4.38 4.84 5.6
136 2 5.7 4.83 6.36
137 2 2.17 1.18 4.88
138 2 3.49 1.17 5.63
139 2 2.23 5.15 6.35
140 2 2.65 6.39 5.59
141 2 5.65 1.43 1.86
142 2 5.23 2.67 1.1
143 2 5.23 2.69 5.61
144 2 5.65 1.45 6.37
145 2 1.78 4.88 8.61
146 2 1.33 3.65 7.85
147 2 1.78 4.85 4.11
148 2 1.78 4.85 2.6
149 2 3.52 5.14 1.1
150 2 2.64 6.37 1.11
151 2 3.49 1.15 1.11
152 2 2.17 1.16 1.87
153 2 6.09 1.14 4.12
154 2 6.53 14.6171 3.37
155 2 6.09 1.15 8.63
156 2 6.53 14.6371 7.86
157 2 7.43 5.14 7.86
158 2 6.53 6.36 7.86
159 2 1.77 1.51 7.13
160 2 0.46 1.51 7.89
161 2 9.16 2.71 3.37
162 2 8.28 1.48 3.37
163 2 13.06 3.59 1.12
164 2 13.5 4.82 0.36
165 2 13.94 5.12 2.61
166 2 15.25 5.14 3.36
167 2 13.52 4.82 4.86
168 2 12.21 4.84 5.62
169 2 11.31 1.17 5.63
170 2 10 1.18 4.88
171 2 10.47 6.39 5.62
172 2 10.05 5.15 4.86
173 2 12.18 1.46 1.11
174 2 13.49 1.45 1.86
175 2 13.05 2.69 5.61
176 2 13.48 1.45 6.37
177 2 9.61 4.88 7.11
178 2 9.16 3.65 7.88
179 2 8.3 4.84 3.36
180 2 9.61 4.85 2.61
181 2 10.04 5.17 0.35
182 2 11.35 5.14 1.11
183 2 10.02 1.16 0.36
184 2 10.02 1.16 1.88
185 2 13.91 1.14 4.12
186 2 14.35 14.6171 3.37
187 2 13.91 1.15 8.63
188 2 14.36 14.6371 7.86
189 2 13.94 5.14 7.11
190 2 15.26 5.16 7.86
191 2 8.28 1.51 7.89
192 2 9.59 1.51 7.13
193 2 1.75 8.83 4.12
194 2 1.33 10.07 3.36
195 2 4.39 12.19 1.1
196 2 5.25 10.94 1.11
197 2 7.43 12.49 3.36
198 2 6.12 12.48 2.61
199 2 5.68 12.17 4.85
200 2 5.68 12.18 6.37
201 2 2.17 8.54 6.37
202 2 3.49 8.52 5.61
203 2 2.64 13.74 5.61
204 2 3.52 12.51 5.61
205 2 4.35 8.81 1.13
206 2 5.66 8.81 0.36
207 2 5.23 10.04 5.63
208 2 5.65 8.8 4.88
209 2 1.78 12.24 7.11
210 2 1.34 11.01 7.88
211 2 0.48 12.2 3.35
212 2 1.79 12.21 4.11
213 2 2.23 12.49 1.85
214 2 2.65 13.72 1.09
215 2 2.19 8.52 1.88
216 2 2.2 8.52 0.36
217 2 7.38 8.49 3.39
218 2 6.07 8.48 2.63
219 2 6.07 8.5 7.13
220 2 7.38 8.51 7.89
221 2 6.12 12.49 8.61
222 2 7.43 12.51 7.85
223 2 0.46 8.86 7.86
224 2 1.77 8.86 8.62
225 2 9.57 8.85 4.13
226 2 9.57 8.84 2.61
227 2 12.21 12.19 1.1
228 2 13.08 10.94 1.11
229 2 13.95 12.48 2.6
230 2 13.95 12.48 4.11
231 2 13.52 12.18 6.36
232 2 12.21 12.19 5.6
233 2 11.31 8.52 5.61
234 2 10 8.54 6.37
235 2 10.47 13.74 5.62
236 2 10.05 12.51 4.86
237 2 13.47 8.8 1.87
238 2 13.47 8.81 0.36
239 2 13.48 8.8 4.88
240 2 13.05 10.04 5.63
241 2 9.6 12.22 8.62
242 2 9.6 12.22 7.11
243 2 9.16 10.99 3.37
244 2 9.61 12.22 2.61
245 2 10.48 13.72 1.13
246 2 10.05 12.49 0.35
247 2 11.3 8.53 1.12
248 2 10.43 7.29 1.11
249 2 15.2 8.51 3.37
250 2 14.34 7.26 3.37
251 2 14.36 7.28 7.88
252 2 13.91 8.52 7.13
253 2 15.26 12.51 7.85
254 2 13.94 12.49 8.61
255 2 9.15 10.09 7.86
256 2 9.57 8.85 8.62
257 2 1.77 1.49 11.66
258 2 0.46 1.49 12.42
259 2 5.68 4.81 10.9
260 2 5.67 4.81 9.38
261 2 6.56 6.34 12.38
262 2 6.13 5.1 13.14
263 2 4.39 4.85 14.65
264 2 5.25 3.61 14.65
265 2 2.19 1.18 13.9
266 2 2.19 1.18 15.42
267 2 2.23 5.15 15.39
268 2 2.65 6.39 14.63
269 2 4.36 1.44 10.15
270 2 5.24 2.67 10.15
271 2 4.35 1.48 14.65
272 2 5.66 1.47 15.41
273 2 1.78 4.88 17.65
274 2 1.33 3.65 16.89
275 2 1.78 4.87 13.14
276 2 1.34 3.64 12.39
277 2 2.21 5.16 10.89
278 2 3.52 5.14 10.13
279 2 2.19 1.18 9.41
280 2 2.63 14.6471 10.16
281 2 6.09 1.13 11.65
282 2 6.09 1.14 13.17
283 2 6.53 14.6371 16.9
284 2 6.09 1.15 17.67
285 2 7.43 5.16 16.9
286 2 6.12 5.14 16.15
287 2 0.46 1.51 16.89
288 2 1.77 1.51 17.66
289 2 8.28 1.48 12.41
290 2 9.16 2.71 12.4
291 2 13.5 4.81 9.38
292 2 13.5 4.81 10.9
293 2 15.25 5.14 12.39
294 2 13.94 5.13 13.14
295 2 13.51 4.84 15.39
296 2 13.06 3.61 14.64
297 2 10.46 14.6671 14.67
298 2 10.01 1.19 13.91
299 2 11.35 5.16 14.65
300 2 10.04 5.17 13.9
301 2 13.07 2.67 10.15
302 2 12.18 1.44 10.15
303 2 13.49 1.47 15.41
304 2 12.18 1.48 14.65
305 2 9.16 3.65 16.91
306 2 9.61 4.88 16.15
307 2 9.61 4.85 11.64
308 2 8.3 4.84 12.4
309 2 10.04 5.17 9.39
310 2 11.35 5.14 10.15
311 2 10.02 1.16 10.91
312 2 10.02 1.16 9.4
313 2 13.92 1.13 11.65
314 2 13.92 1.14 13.17
315 2 13.91 1.15 17.67
316 2 14.36 14.6371 16.9
317 2 14.36 6.36 16.9
318 2 15.25 5.14 16.9
319 2 8.28 1.51 16.93
320 2 9.59 1.51 16.17
321 2 1.75 8.83 11.66
322 2 1.33 10.07 12.41
323 2 5.7 12.16 10.89
324 2 4.38 12.17 10.13
325 2 6.13 12.46 13.14
326 2 6.56 13.7 12.38
327 2 4.39 12.21 14.65
328 2 5.25 10.96 14.65
329 2 3.49 8.52 14.67
330 2 2.17 8.53 13.91
331 2 2.65 13.74 14.63
332 2 2.23 12.5 15.39
333 2 5.22 10.02 10.17
334 2 5.65 8.79 9.4
335 2 5.65 8.81 13.9
336 2 5.65 8.82 15.42
337 2 0.48 12.22 16.89
338 2 1.79 12.22 17.65
339 2 0.48 12.2 12.39
340 2 1.79 12.21 13.14
341 2 2.23 12.52 9.38
342 2 2.23 12.51 10.89
343 2 2.61 7.29 10.15
344 2 3.48 8.53 10.16
345 2 7.38 8.49 12.42
346 2 6.07 8.48 11.66
347 2 6.52 7.28 16.91
348 2 7.37 8.53 16.91
349 2 6.14 12.5 17.65
350 2 6.13 12.5 16.14
351 2 1.75 8.84 16.16
352 2 1.33 10.09 16.92
353 2 9.57 8.85 13.16
354 2 9.57 8.84 11.65
355 2 13.08 10.94 10.15
356 2 12.21 12.19 10.14
357 2 14.37 13.7 12.41
358 2 13.95 12.46 11.65
359 2 12.21 12.19 14.66
360 2 13.52 12.17 13.9
361 2 11.3 8.55 14.66
362 2 10.43 7.31 14.66
363 2 10.05 12.53 15.4
364 2 10.05 12.52 13.89
365 2 13.47 8.81 9.39
366 2 13.47 8.8 10.91
367 2 13.48 8.8 13.91
368 2 13.05 10.04 14.67
369 2 9.19 11.01 16.9
370 2 8.31 12.24 16.9
371 2 8.31 12.22 12.39
372 2 9.19 10.99 12.4
373 2 10.48 13.72 10.13
374 2 10.05 12.49 10.88
375 2 10.43 7.29 10.15
376 2 11.3 8.53 10.16
377 2 15.2 8.51 12.41
378 2 14.34 7.26 12.4
379 2 15.2 8.51 16.93
380 2 13.89 8.5 16.17
381 2 13.96 12.5 17.65
382 2 13.95 12.5 16.14
383 2 9.57 8.86 16.15
384 2 9.56 8.86 17.67
ITEM: TIMESTEP
200
ITEM: NUMBER OF ATOMS
384
ITEM: BOX BOUNDS pp pp pp
2.4136573719089505e-01 1.5404311792809107e+01
2.3499875751976607e-01 1.4472146532480238e+01
3.2049711169290340e-01 1.7752539918307097e+01
ITEM: ATOMS id type x y z
1 1 1.27667 1.6809 3.33441
2 1 5.03119 4.42986 0.989434
3 1 6.34179 5.30043 3.31446
4 1 5.02237 4.32562 5.40845
5 1 2.57337 0.704267 5.40893
6 1 2.47197 5.27248 5.51308
7 1 5.03902 1.78558 1.04982
8 1 5.13146 1.66203 5.46441
9 1 1.27387 4.34774 7.56804
10 1 1.26075 4.37605 3.22933
11 1 2.53066 5.26735 1.21484
12 1 2.48004 0.859393 1.07732
13 1 6.22229 0.884508 3.24105
14 1 6.31546 0.734276 7.62746
15 1 6.29434 5.22763 7.59005
16 1 1.3834 1.69779 7.5663
17 1 8.81469 1.79862 3.23425
18 1 12.6835 4.36808 0.997436
19 1 13.9478 5.20469 3.26157
20 1 12.7145 4.36759 5.37418
21 1 10.1357 0.846399 5.34689
22 1 10.1695 5.25287 5.48517
23 1 12.7559 1.7173 1.03706
24 1 12.7518 1.71961 5.30987
25 1 8.89979 4.25014 7.67189
26 1 8.91251 4.42866 3.25203
27 1 10.0744 5.30625 1.02568
28 1 10.1308 0.956109 1.10084
29 1 13.9124 0.794752 3.17948
30 1 14.0001 0.841642 7.59754
31 1 13.9859 5.21371 7.69067
32 1 8.8229 1.61531 7.58301
33 1 1.29532 8.78058 3.22877
34 1 5.04163 11.5329 1.12627
35 1 6.35775 12.3784 3.17623
36 1 5.03579 11.5171 5.37034
37 1 2.51524 8.01927 5.38763
38 1 2.51074 12.3362 5.32683
39 1 5.03387 8.84347 1.12145
40 1 5.12813 8.90113 5.40809
41 1 1.32729 11.527 7.49863
42 1 1.3232 11.4406 3.13716
43 1 2.52898 12.3785 1.02976
44 1 2.6069 7.89137 1.07734
45 1 6.335 7.97085 3.32492
46 1 6.27119 7.91544 7.56868
47 1 6.28413 12.3598 7.56784
48 1 1.28808 8.85453 7.59768
49 1 8.91208 8.82159 3.26906
50 1 12.7266 11.4538 1.00095
51 1 14.0195 12.2674 3.21286
52 1 12.7352 11.5698 5.3987
53 1 10.1346 7.89384 5.41234
54 1 10.1147 12.3767 5.36669
55 1 12.6086 8.8013 1.21482
56 1 12.5765 8.83488 5.32024
57 1 8.78049 11.4061 7.49018
58 1 8.85208 11.4604 3.21277
59 1 10.1277 12.4592 1.06157
60 1 10.0721 8.0515 1.13004
61 1 14.0099 7.98783 3.26678
62 1 13.8411 7.92045 7.53307
63 1 13.965 12.5405 7.58151
64 1 8.75678 8.79767 7.61323
65 1 1.29485 1.66851 11.9945
66 1 5.07834 4.37801 9.78716
67 1 6.26265 5.38759 11.9726
68 1 5.12998 4.37346 14.1076
69 1 2.59759 0.847241 14.2361
70 1 2.63949 5.26983 14.1357
71 1 5.16138 1.71799 9.85206
72 1 5.13948 1.6619 14.1643
73 1 1.35248 4.3955 16.3387
74 1 1.41884 4.40831 11.9832
75 1 2.58818 5.27053 9.67013
76 1 2.58678 0.877629 9.79073
77 1 6.29922 0.841302 11.9841
78 1 6.39002 0.773983 16.3695
79 1 6.3309 5.31667 16.2762
80 1 1.29803 1.74178 16.3531
81 1 8.86901 1.65886 12.001
82 1 12.7319 4.31947 9.76434
83 1 13.9556 5.28536 11.9364
84 1 12.6145 4.417 14.049
85 1 10.1694 0.82798 14.2026
86 1 10.0514 5.23195 14.0374
87 1 12.6834 1.78046 9.77879
88 1 12.7398 1.71091 14.1946
89 1 8.79381 4.42603 16.3593
90 1 8.77975 4.3931 11.8703
91 1 10.1808 5.26449 9.70199
92 1 10.1019 0.85486 9.7988
93 1 13.8922 0.844709 11.9422
94 1 14.0171 0.744185 16.3033
95 1 13.9658 5.27452 16.2045
96 1 8.88031 1.85001 16.3076
97 1 1.1915 8.8405 11.9468
98 1 5.09663 11.585 9.77204
99 1 6.35877 12.3867 11.9609
100 1 5.08982 11.4664 14.1628
101 1 2.61176 7.99012 14.2098
102 1 2.60318 12.3973 14.1701
103 1 5.01685 8.93064 9.73387
104 1 5.03034 8.81685 14.2579
105 1 1.38652 11.4938 16.2268
106 1 1.33388 11.4959 12.024
107 1 2.56872 12.4031 9.87369
108 1 2.52847 7.89945 9.76166
109 1 6.17159 7.98196 11.9047
110 1 6.33225 7.9742 16.3443
111 1 6.34423 12.3697 16.3688
112 1 1.25961 8.82785 16.3502
113 1 8.79651 8.64204 11.9302
114 1 12.6179 11.5407 9.72138
115 1 13.9428 12.4252 11.9861
116 1 12.7898 11.5044 14.2324
117 1 10.0124 7.94191 14.2677
118 1 10.276 12.4258 14.2096
119 1 12.6194 8.92401 9.73391
120 1 12.6363 8.87344 14.1914
121 1 8.90292 11.5952 16.2558
122 1 8.96357 11.4534 12.0046
123 1 10.1038 12.4097 9.69358
124 1 10.1382 7.90429 9.80658
125 1 13.7584 7.95467 11.9787
126 1 13.9186 7.94243 16.334
127 1 14.0563 12.3731 16.3018
128 1 8.83141 8.86863 16.3678
129 2 0.36069 1.29652 3.37951
130 2 1.23458 2.68075 3.22432
131 2 5.34392 4.74817 1.85355
132 2 5.66167 4.56086 0.37002
133 2 5.97173 4.7294 3.95313
134 2 6.31185 6.26495 3.29674
135 2 4.13948 4.63536 5.40587
136 2 5.47779 4.79005 6.22002
137 2 2.06045 1.19477 4.63731
138 2 3.47529 1.29557 5.37367
139 2 2.06761 5.10464 6.41579
140 2 2.54041 6.29788 5.45264
141 2 5.49179 1.48115 1.89534
142 2 5.1259 2.66249 1.13132
143 2 5.22661 2.61901 5.48297
144 2 5.59956 1.26345 6.26649
145 2 1.7831 4.77177 8.37496
146 2 1.42379 3.31525 7.70197
147 2 1.75474 4.70083 4.18019
148 2 1.75509 4.84404 2.58133
149 2 3.56945 5.14177 1.15182
150 2 2.26758 6.19641 1.20953
151 2 3.3861 1.1178 0.808101
152 2 2.24755 1.16203 1.91468
153 2 5.79814 1.0612 4.2344
154 2 6.15226 14.2297 3.26182
155 2 5.73168 1.01945 8.41906
156 2 6.39338 14.0559 7.56148
157 2 7.20765 4.84767 7.53856
158 2 6.29835 6.28572 7.41865
159 2 1.86821 1.01884 6.71579
160 2 0.392826 1.12497 7.62379
161 2 8.65724 2.82715 3.26275
162 2 7.90245 1.41079 3.13329
163 2 12.7451 3.29627 1.1262
164 2 13.2621 4.72137 17.6655
165 2 13.5756 4.80338 2.3068
166 2 14.8316 4.84802 3.24997
167 2 13.0746 4.62622 4.57589
168 2 11.8845 4.76757 5.28093
169 2 11.0786 1.2007 5.34941
170 2 9.51346 1.36779 4.49664
171 2 10.0887 6.28553 5.33816
172 2 9.6258 4.74709 4.81255
173 2 11.9244 1.46652 1.13273
174 2 13.1089 1.16629 1.84732
175 2 12.681 2.75095 5.32166
176 2 13.0371 1.406 6.33027
177 2 9.33678 4.69618 6.8003
178 2 8.83583 3.21276 7.59271
179 2 7.85264 4.74084 3.52959
180 2 9.3541 4.69663 2.34798
181 2 9.73141 5.02763 0.352667
182 2 11.0565 5.05571 0.780731
183 2 9.71126 1.08602 17.6286
184 2 9.76192 1.51424 1.75092
185 2 13.4618 1.17882 3.99908
186 2 14.0599 14.1106 3.2471
187 2 13.4896 1.40071 8.46763
188 2 14.0008 13.8975 7.66823
189 2 13.5843 4.95588 6.84477
190 2 15.0396 4.8855 7.55844
191 2 7.89658 0.978488 7.55491
192 2 9.38579 1.25147 6.77322
193 2 1.9028 8.64375 4.05032
194 2 1.40636 9.81817 3.12005
195 2 4.04246 11.6212 1.02049
196 2 5.12191 10.4586 1.14186
197 2 7.387 12.065 3.02663
198 2 5.98201 12.086 2.2926
199 2 5.69873 11.7342 4.58739
200 2 5.38494 11.9042 6.21106
201 2 1.93315 8.15517 6.26765
202 2 3.73703 8.24129 5.22782
203 2 2.50733 13.3227 5.16851
204 2 3.50338 12.0913 5.29057
205 2 3.94953 8.62407 1.17196
206 2 5.432 8.24111 0.505481
207 2 4.96776 10.0164 5.31454
208 2 5.6441 8.4271 4.39132
209 2 1.95174 11.8791 6.85359
210 2 1.25041 10.6264 7.44361
211 2 0.398698 11.9024 3.24026
212 2 1.8086 11.7306 3.91591
213 2 1.97567 12.0194 1.7269
214 2 2.42434 13.3155 1.05582
215 2 2.20004 8.15989 1.91262
216 2 2.15092 8.32174 0.399184
217 2 7.20058 8.4658 3.3906
218 2 5.99414 8.42484 2.56765
219 2 6.00117 8.24155 6.76829
220 2 7.26738 8.24799 7.59536
221 2 5.89077 12.0437 8.25608
222 2 7.19039 11.9225 7.6614
223 2 0.575069 8.30149 7.68966
224 2 1.99321 8.23103 8.27188
225 2 9.21996 8.44295 4.07711
226 2 9.23562 8.43815 2.39305
227 2 11.8105 11.8583 1.19261
228 2 12.6625 10.4776 1.07065
229 2 13.5397 11.8725 2.39125
230 2 13.4633 11.9611 4.0455
231 2 13.1755 12.0274 6.18721
232 2 11.8257 11.9192 5.53332
233 2 11.1353 8.10938 5.48951
234 2 9.55595 8.26591 6.23012
235 2 10.2015 13.3236 5.40178
236 2 9.82819 12.1732 4.53051
237 2 13.0463 8.51063 1.99178
238 2 13.0594 8.46526 17.6351
239 2 12.9969 8.57582 4.51262
240 2 12.5503 9.87169 5.36065
241 2 9.23951 11.9356 8.40113
242 2 9.13989 11.9055 6.52514
243 2 8.91219 10.3751 3.26256
244 2 9.51806 11.8186 2.48268
245 2 10.0325 13.4554 1.08521
246 2 9.79996 12.1419 17.6891
247 2 11.143 8.1428 1.2192
248 2 10.0268 7.00595 1.06406
249 2 15.0189 8.37726 3.27864
250 2 13.9697 7.01861 3.10837
251 2 13.8103 6.90165 7.55118
252 2 13.5222 8.28813 6.63147
253 2 14.9892 12.0656 7.46231
254 2 13.4488 12.05 8.29395
255 2 8.95388 9.8203 7.68502
256 2 9.18938 8.47396 8.40997
257 2 1.65994 1.2395 11.1616
258 2 0.37625 1.26117 12.0163
259 2 5.7135 4.78664 10.5949
260 2 5.63634 4.71338 8.90537
261 2 6.20081 6.41967 11.8798
262 2 5.82473 5.09899 12.8492
263 2 4.05712 4.68782 14.0145
264 2 5.14542 3.30235 14.15
265 2 2.13363 1.26358 13.3595
266 2 2.14424 1.05447 15.0141
267 2 2.05583 4.84351 14.8382
268 2 2.42053 6.22179 14.156
269 2 4.11541 1.47052 9.8573
270 2 5.17199 2.66924 9.98242
271 2 4.26165 1.4543 14.4579
272 2 5.77332 1.53014 15.1064
273 2 1.70306 4.54513 17.246
274 2 1.26255 3.51799 16.196
275 2 2.05353 4.71875 12.9212
276 2 1.35058 3.3651 11.9612
277 2 2.05065 4.92865 10.4706
278 2 3.64109 4.79384 9.83442
279 2 2.03385 1.17692 8.99492
280 2 2.58234 14.0334 9.56941
281 2 5.89884 1.19432 11.1935
282 2 5.90052 1.24765 12.7665
283 2 6.35231 14.0068 16.337
284 2 5.96102 1.19515 17.1583
285 2 7.15865 4.99107 16.3335
286 2 5.81543 4.87449 15.5436
287 2 0.354091 1.27469 16.4942
288 2 1.7385 1.46824 17.2796
289 2 7.78323 1.4491 12.0642
290 2 8.63571 2.69989 11.8823
291 2 13.2895 4.77136 8.93159
292 2 12.9151 4.73766 10.6875
293 2 14.917 5.0602 11.8456
294 2 13.6378 4.91111 12.8306
295 2 13.0423 4.86309 14.8829
296 2 12.6843 3.33695 14.1803
297 2 10.1697 14.0151 14.1788
298 2 9.48335 1.00652 13.3272
299 2 11.0747 5.04819 13.8624
300 2 9.60458 4.79033 13.2172
301 2 12.7219 2.71656 9.8367
302 2 11.6445 1.46656 9.77815
303 2 13.2455 1.32307 15.1112
304 2 11.8406 1.51039 14.1816
305 2 8.86741 3.45749 16.3131
306 2 9.33032 4.76045 15.6974
307 2 9.20613 4.65072 11.0003
308 2 7.85549 4.69839 11.8141
309 2 9.65065 4.98792 8.89244
310 2 11.2751 4.94997 9.74785
311 2 9.61437 1.13667 10.6197
312 2 9.63359 1.18335 9.07982
313 2 13.5149 1.27174 10.8816
314 2 13.3135 1.1329 12.7695
315 2 13.6556 1.05777 17.0655
316 2 14.0553 13.9551 16.43
317 2 13.8071 6.27995 16.2901
318 2 15.084 4.98639 16.0828
319 2 7.8987 1.55273 16.3997
320 2 9.38763 1.37246 15.5915
321 2 1.67587 8.75501 10.9668
322 2 1.37349 9.87164 11.7391
323 2 5.69897 11.8238 10.5345
324 2 4.038 12.1028 9.87624
325 2 5.90832 11.9079 12.8799
326 2 6.33031 13.3083 12.0153
327 2 4.18558 11.7584 14.0271
328 2 5.05884 10.3936 13.9887
329 2 3.56092 8.51936 14.1857
330 2 2.18359 8.3109 13.3697
331 2 2.73362 13.5295 14.1089
332 2 2.20165 12.1922 14.8763
333 2 4.98784 9.96523 9.72089
334 2 5.56565 8.56306 8.95135
335 2 5.59871 8.5328 13.4354
336 2 5.56751 8.6917 15.1086
337 2 0.497952 11.7877 16.4829
338 2 1.93772 11.8776 17.0582
339 2 0.260707 11.837 11.92
340 2 1.74086 11.919 12.6272
341 2 2.14628 12.0152 9.16878
342 2 2.12473 12.2069 10.6595
343 2 2.68371 6.94745 9.71333
344 2 3.514 8.19956 9.56526
345 2 6.93691 8.43597 11.8793
346 2 5.73024 8.47311 11.1592
347 2 6.48503 7.09274 15.9834
348 2 7.25339 8.44856 16.3454
349 2 5.90476 11.9256 17.0971
350 2 5.84841 12.0084 15.7221
351 2 1.80789 8.70163 15.5895
352 2 1.21927 9.80581 16.3324
353 2 9.38245 8.27845 12.8001
354 2 9.08494 8.11958 11.244
355 2 12.7581 10.5915 9.83674
356 2 11.7239 11.9267 9.80324
357 2 13.845 13.4626 11.9889
358 2 13.4909 12.1075 11.0764
359 2 11.9797 11.8449 13.9752
360 2 13.4054 11.7532 13.3876
361 2 11.0841 8.18617 14.1565
362 2 9.97121 6.82156 14.2364
363 2 9.8017 11.8559 15.0326
364 2 9.73435 12.0412 13.4908
365 2 12.8724 8.52899 8.86464
366 2 13.1537 8.27425 10.3667
367 2 12.9956 8.60389 13.1066
368 2 12.5493 9.79719 14.3805
369 2 9.01723 10.7803 16.446
370 2 7.93934 11.6742 16.2218
371 2 8.09548 11.7684 12.1043
372 2 8.76517 10.4776 12.0498
373 2 10.0947 13.4185 9.63435
374 2 9.73532 12.2134 10.6347
375 2 10.2064 6.85836 9.72085
376 2 10.9999 8.30058 9.62605
377 2 14.8064 8.30007 12.0679
378 2 13.9539 6.96071 12.2137
379 2 14.9017 8.13415 16.307
380 2 13.3442 8.38143 15.4613
381 2 13.5201 11.9435 17.0429
382 2 13.4832 12.1382 15.4885
383 2 9.11373 8.45065 15.6512
384 2 9.42521 8.64265 17.1403
ITEM: TIMESTEP
400
ITEM: NUMBER OF ATOMS
384
ITEM: BOX BOUNDS pp pp pp
4.6654049692420863e-01 1.5179137033075790e+01
4.3348055518130035e-01 1.4273664734818711e+01
6.2313843955395143e-01 1.7449898590446061e+01
ITEM: ATOMS id type x y z
1 1 1.43819 1.67027 3.29184
2 1 5.08047 4.43721 1.1629
3 1 6.21356 5.12691 3.25445
4 1 4.85765 4.23311 5.18866
5 1 2.5472 0.570696 5.37338
6 1 2.44851 5.14689 5.29224
7 1 4.87336 1.76761 1.19779
8 1 4.95592 1.58868 5.18921
9 1 1.17838 4.29467 7.41772
10 1 1.20136 4.27492 3.11971
11 1 2.51391 5.02451 1.03421
12 1 2.46961 0.956839 1.06561
13 1 6.14303 0.820989 3.18082
14 1 6.28351 0.82244 7.34046
15 1 6.13047 5.11105 7.20851
16 1 1.45632 1.72016 7.34241
17 1 8.57837 1.78095 3.19765
18 1 12.2305 4.22977 0.771213
19 1 13.3827 5.01078 2.96179
20 1 12.2336 4.13806 5.06879
21 1 9.87129 0.667309 5.13663
22 1 9.83125 5.12165 5.19527
23 1 12.2732 1.5661 0.989736
24 1 12.4281 1.5448 5.21892
25 1 8.65887 4.14517 7.30016
26 1 8.59791 4.35354 2.99782
27 1 9.88212 5.22007 0.849495
28 1 9.75609 0.912982 1.08834
29 1 13.6311 0.90665 3.14342
30 1 13.5945 0.806389 7.54929
31 1 13.5426 5.2119 7.13999
32 1 8.73048 1.49644 7.36331
33 1 1.30994 8.54812 3.15705
34 1 4.94925 11.1375 1.08289
35 1 6.19057 12.0993 3.00823
36 1 4.94269 11.2012 5.07321
37 1 2.44898 7.73225 5.41176
38 1 2.37985 11.8608 5.25724
39 1 4.83135 8.60525 1.09306
40 1 4.90998 8.62188 5.1262
41 1 1.20118 11.1001 7.35554
42 1 1.20851 11.1712 3.08159
43 1 2.58738 12.2195 0.978639
44 1 2.3769 7.61212 0.955693
45 1 6.27535 7.68518 3.06144
46 1 6.14951 7.78334 7.29742
47 1 6.03989 12.0018 7.32706
48 1 1.12736 8.45256 7.31295
49 1 8.64125 8.58337 3.08237
50 1 12.3513 11.083 1.06649
51 1 13.4608 12.216 3.16496
52 1 12.3524 11.355 5.2739
53 1 9.8053 7.63717 5.28699
54 1 9.81376 11.9765 5.31845
55 1 12.3766 8.63886 1.16191
56 1 12.1721 8.77247 5.18754
57 1 8.46658 11.2215 7.24642
58 1 8.6826 11.1345 3.13051
59 1 9.96568 12.1953 1.04639
60 1 9.87372 7.7505 1.00973
61 1 13.5568 7.69363 3.13345
62 1 13.2935 7.77822 7.24298
63 1 13.5162 12.1236 7.49218
64 1 8.44175 8.56839 7.2679
65 1 1.41501 1.63746 11.5517
66 1 5.00128 4.20834 9.41616
67 1 6.16063 5.27152 11.6229
68 1 4.98299 4.41414 13.5957
69 1 2.53367 0.756152 13.6817
70 1 2.46437 5.20443 13.6929
71 1 4.99369 1.63464 9.61206
72 1 4.96854 1.87009 13.7825
73 1 1.15508 4.34497 15.6951
74 1 1.32927 4.1631 11.6643
75 1 2.4519 5.19725 9.656
76 1 2.56379 0.788964 9.52495
77 1 6.26306 0.684141 11.7535
78 1 6.10288 0.743504 15.8889
79 1 6.28813 5.13165 15.8175
80 1 1.16535 1.62831 15.7556
81 1 8.49058 1.72676 11.5567
82 1 12.3625 4.33488 9.45344
83 1 13.5648 5.15099 11.5756
84 1 12.2312 4.15198 13.5756
85 1 9.81355 0.799883 13.5554
86 1 9.76187 4.95306 13.4587
87 1 12.1807 1.71246 9.57932
88 1 12.2977 1.42801 13.6885
89 1 8.65559 4.09957 15.6437
90 1 8.5139 4.29658 11.3171
91 1 9.89718 5.21184 9.25547
92 1 9.91946 0.723632 9.49309
93 1 13.6113 1.01548 11.5159
94 1 13.6251 0.540822 15.8694
95 1 13.4678 5.15347 15.5309
96 1 8.62269 1.52546 15.7084
97 1 1.23478 8.72669 11.5203
98 1 4.94348 11.243 9.51936
99 1 6.16901 12.0138 11.6236
100 1 4.88787 11.2521 13.7848
101 1 2.38513 7.74239 13.6037
102 1 2.387 12.0428 13.568
103 1 4.74957 8.64579 9.42602
104 1 4.74853 8.72048 13.6036
105 1 1.35229 11.0429 15.8242
106 1 1.2357 11.3555 11.5072
107 1 2.3997 12.0712 9.42846
108 1 2.3104 7.69616 9.42688
109 1 6.07969 7.86678 11.5026
110 1 6.19775 7.78568 15.7032
111 1 6.19426 12.0126 15.7503
112 1 1.27806 8.54595 15.7743
113 1 8.65259 8.66414 11.5356
114 1 12.1876 11.2362 9.45531
115 1 13.5041 12.2136 11.4286
116 1 12.1588 11.2671 13.5333
117 1 9.78315 7.62522 13.6948
118 1 9.71356 12.0561 13.4773
119 1 12.249 8.56552 9.51123
120 1 12.2051 8.62195 13.5492
121 1 8.67203 11.344 15.8766
122 1 8.54856 11.1416 11.5104
123 1 9.75299 11.9641 9.43185
124 1 9.80382 7.71576 9.44357
125 1 13.5293 7.703 11.4549
126 1 13.4976 7.77845 15.6804
127 1 13.5967 11.7944 15.7501
128 1 8.5575 8.64278 15.772
129 2 15.1525 1.37895 3.04704
130 2 1.30579 2.68857 3.38582
131 2 5.54934 4.67357 1.88344
132 2 5.65833 4.55296 17.2922
133 2 5.53096 4.80128 4.05642
134 2 6.31192 6.25252 3.27994
135 2 3.92792 4.74596 5.17058
136 2 5.28702 4.52861 6.03885
137 2 2.00294 0.826342 4.47486
138 2 3.36897 1.19602 5.33601
139 2 1.94096 4.88508 5.96923
140 2 2.40508 6.27424 5.19779
141 2 5.49448 1.45204 1.83533
142 2 4.94689 2.7038 0.930624
143 2 4.54151 2.61345 4.98714
144 2 5.25647 1.32192 6.08346
145 2 1.65752 4.58959 8.1861
146 2 1.31403 3.33097 7.44752
147 2 1.72783 4.80786 3.86618
148 2 1.75676 4.62791 2.34786
149 2 3.47255 4.84809 1.05329
150 2 2.54884 5.96145 1.0266
151 2 3.40437 1.42678 1.07908
152 2 2.13836 1.44971 1.94031
153 2 5.50274 1.24288 3.97887
154 2 6.19336 13.5216 3.16415
155 2 5.91901 1.24926 8.24968
156 2 6.22164 13.7228 7.338
157 2 7.01122 4.81788 7.14838
158 2 6.05902 6.15393 6.97885
159 2 1.78327 1.25044 6.40718
160 2 0.492131 1.16157 7.36317
161 2 8.74919 2.73582 3.21304
162 2 7.60916 1.33652 3.18532
163 2 12.148 3.18159 0.860543
164 2 12.542 4.43083 16.7717
165 2 12.8541 4.73272 2.20158
166 2 14.495 4.84667 3.0666
167 2 12.7308 4.37659 4.29434
168 2 11.2038 4.45007 5.16083
169 2 10.7783 1.07494 5.03797
170 2 9.32847 1.12689 4.39942
171 2 9.71215 5.9873 5.38684
172 2 9.43206 4.96303 4.2763
173 2 11.3545 1.23802 0.874341
174 2 12.8372 1.32317 1.91592
175 2 12.2175 2.63602 5.36539
176 2 12.9264 1.2245 6.1644
177 2 9.06843 4.38023 6.3824
178 2 8.54102 3.11102 7.45944
179 2 7.71818 4.7965 3.0558
180 2 8.97234 4.8108 2.24615
181 2 9.32228 4.78908 16.5959
182 2 10.9264 4.91671 0.823743
183 2 9.09972 1.22456 17.2591
184 2 9.42553 1.40431 1.91554
185 2 13.3138 1.16878 4.01325
186 2 13.4886 13.8089 3.04573
187 2 13.2284 1.06369 8.29986
188 2 13.6822 13.5266 7.76469
189 2 13.3456 4.58563 6.36149
190 2 14.4881 5.13734 7.28534
191 2 7.77504 1.3941 7.17143
192 2 9.32333 1.39213 6.44254
193 2 2.02682 8.2394 3.84224
194 2 1.2225 9.62476 3.19257
195 2 3.97082 11.5196 0.997648
196 2 4.84393 10.1482 1.02601
197 2 7.24566 11.8444 2.95263
198 2 5.7725 11.5782 2.21216
199 2 5.44761 11.6211 4.22632
200 2 5.43246 11.2964 5.87252
201 2 1.93292 8.05194 6.26832
202 2 3.46538 8.10242 5.49542
203 2 2.46921 12.8647 5.37294
204 2 3.37828 11.6024 5.28769
205 2 3.96272 8.28272 1.1349
206 2 5.21334 8.17191 17.0929
207 2 5.02625 9.65892 5.06987
208 2 5.50536 8.1352 4.33983
209 2 1.55529 11.2906 6.47689
210 2 1.06104 10.1064 7.35251
211 2 15.0539 11.5814 3.3788
212 2 1.85578 11.5239 3.81969
213 2 1.79782 11.8735 1.5927
214 2 2.59159 13.1703 1.04418
215 2 2.01294 8.17941 1.62878
216 2 2.03654 7.98705 17.0019
217 2 7.30773 7.98286 3.07642
218 2 5.80877 7.94931 2.07116
219 2 5.68763 7.97278 6.4714
220 2 7.09955 8.17039 7.26239
221 2 5.53971 11.7748 8.40856
222 2 7.10206 11.6928 7.19002
223 2 14.8385 8.13201 7.56618
224 2 1.52025 8.33628 8.30151
225 2 9.13432 8.29759 4.05444
226 2 8.97705 8.04233 2.29074
227 2 11.2567 11.469 1.08189
228 2 12.3388 10.1765 1.02997
229 2 13.0694 11.6481 2.36271
230 2 13.0913 11.8227 4.02465
231 2 12.8839 11.5359 6.03318
232 2 11.4489 11.5003 5.19723
233 2 10.8295 7.91157 5.26971
234 2 9.28334 8.06915 5.98365
235 2 9.92495 12.9684 5.13522
236 2 9.36701 11.6481 4.41084
237 2 12.8914 8.15836 1.84587
238 2 12.7264 8.08265 17.2068
239 2 12.617 8.28429 4.44263
240 2 12.3247 9.7739 5.214
241 2 9.05896 11.4404 8.00084
242 2 8.9783 11.6593 6.53289
243 2 8.43716 10.2274 3.13215
244 2 9.19759 11.4642 2.30452
245 2 9.74935 13.0964 1.18807
246 2 9.39204 11.7568 17.0061
247 2 10.8005 8.08296 0.906508
248 2 9.97236 6.74234 0.924634
249 2 14.5536 7.99836 3.43611
250 2 13.5139 6.78486 3.08905
251 2 13.3675 6.67191 7.14214
252 2 13.0451 8.19986 6.39502
253 2 14.4826 11.7284 7.48145
254 2 12.9202 11.8525 8.28183
255 2 8.43275 9.59658 7.51726
256 2 8.8475 8.18226 8.11908
257 2 1.86131 1.18738 10.6781
258 2 0.544631 1.46227 11.5741
259 2 5.59663 4.60675 10.2141
260 2 5.22494 4.64966 8.58071
261 2 5.97238 6.31185 11.5249
262 2 5.59079 5.06021 12.5066
263 2 3.93096 4.63892 13.6025
264 2 4.93525 3.47287 13.7127
265 2 2.16104 1.13864 12.7452
266 2 1.9149 1.11219 14.4429
267 2 2.03271 4.88488 14.5735
268 2 2.41923 6.25043 13.5973
269 2 4.132 1.13876 9.54841
270 2 5.03675 2.72046 9.55165
271 2 3.96368 1.60549 13.7159
272 2 5.5313 1.42325 14.5496
273 2 1.70377 4.4457 16.4219
274 2 1.16989 3.26411 15.64
275 2 1.8585 4.36293 12.5401
276 2 1.51966 3.2647 11.6853
277 2 2.14356 4.83082 10.5583
278 2 3.31764 4.87036 9.47056
279 2 2.21308 1.21633 8.65545
280 2 2.70305 13.6807 9.44081
281 2 5.93185 1.12303 10.9065
282 2 5.90995 1.16611 12.4938
283 2 6.1653 13.6029 16.0785
284 2 5.52613 1.12155 16.6598
285 2 7.17954 4.67979 15.6148
286 2 5.98105 4.96837 14.8957
287 2 15.0092 1.06417 15.7004
288 2 1.61537 1.48287 16.6293
289 2 7.54837 1.46044 11.8721
290 2 8.40975 2.73071 11.399
291 2 12.7523 4.52541 8.59295
292 2 12.9208 4.4919 10.2213
293 2 14.5779 4.79787 11.6097
294 2 13.0475 4.84941 12.4118
295 2 12.9139 4.63575 14.2252
296 2 12.4837 3.06746 13.8263
297 2 9.64899 13.6666 13.3034
298 2 9.37339 1.02592 12.6561
299 2 10.7138 4.60232 13.4682
300 2 9.30247 4.7814 12.4444
301 2 11.9254 2.6431 9.34431
302 2 11.2643 1.23488 9.68103
303 2 12.6812 1.22757 14.5861
304 2 11.3676 1.3281 13.6113
305 2 8.60975 3.00797 15.5964
306 2 9.14463 4.3673 14.6387
307 2 9.17867 4.84418 10.5453
308 2 7.55731 4.56722 11.5364
309 2 9.42191 4.76774 8.61864
310 2 11.001 4.98727 9.31408
311 2 9.40977 0.982292 10.2697
312 2 9.58647 1.05961 8.64569
313 2 13.0614 1.32247 10.7101
314 2 13.198 1.45871 12.4527
315 2 13.4554 1.02021 16.7153
316 2 13.6057 13.3989 15.7778
317 2 13.5895 6.21117 15.3487
318 2 14.4839 4.91072 15.5685
319 2 7.61459 1.14156 15.7995
320 2 9.04095 1.09073 14.9328
321 2 1.60042 8.42955 10.7017
322 2 1.10311 9.58844 11.4601
323 2 5.45667 11.4126 10.3609
324 2 3.89648 11.5629 9.50743
325 2 5.38999 11.6086 12.4104
326 2 6.33515 12.9456 11.7224
327 2 3.94026 11.4054 13.763