ITEM: TIMESTEP
0
ITEM: NUMBER OF ATOMS
384
ITEM: BOX BOUNDS pp pp pp
-3.1180958401302572e-01 1.5311809584013066e+01
-3.1180958401302572e-01 1.5311809584013066e+01
-3.1180958401302572e-01 1.5311809584013066e+01
ITEM: ATOMS id type x y z
1 1 4.57679 5.50123 13.6944
2 1 14.8875 3.66367 14.1079
3 1 8.20115 10.8513 3.91518
4 1 1.55859 4.11103 4.68534
5 1 14.0046 11.0534 10.4291
6 1 10.1562 -0.0244194 -0.0179537
7 1 13.1461 9.78511 5.92123
8 1 3.48566 13.6848 7.87681
9 1 3.32305 6.30373 3.20589
10 1 5.30735 8.37688 2.36991
11 1 13.7801 6.32188 1.70807
12 1 0.692367 10.1945 14.1186
13 1 15.0627 5.43363 4.6639
14 1 9.98456 5.97612 7.92121
15 1 12.4056 7.19481 3.96576
16 1 9.83562 2.64919 6.79506
17 1 4.60459 4.17249 11.4106
18 1 7.55062 10.3381 11.1669
19 1 8.27543 1.89543 14.4455
20 1 5.83253 14.0038 0.549654
21 1 -0.277952 13.5963 10.2649
22 1 12.6457 2.09652 6.28487
23 1 10.7129 7.40871 14.2399
24 1 2.2119 7.88472 6.40809
25 1 10.4542 9.69036 5.97773
26 1 -0.282536 8.22967 4.81222
27 1 1.6652 11.2607 4.20606
28 1 6.17365 -0.094545 10.725
29 1 12.1932 8.4542 0.381712
30 1 2.29814 6.67565 12.652
31 1 3.74006 5.65533 5.77839
32 1 7.64075 12.3667 7.75101
33 1 2.57949 3.81144 2.08856
34 1 3.31976 13.3432 0.0677147
35 1 -0.0967938 5.37115 7.46928
36 1 11.1426 14.5448 7.59235
37 1 1.26174 14.8074 2.57217
38 1 6.41618 0.335516 13.3898
39 1 0.207637 9.92258 2.18818
40 1 12.6731 13.1901 12.8323
41 1 1.29363 11.9761 7.9846
42 1 13.2286 14.8362 0.439531
43 1 -0.123887 15.1905 5.01064
44 1 8.80795 12.7708 12.0788
45 1 12.4172 6.75949 6.79319
46 1 9.49869 10.6014 8.40823
47 1 10.544 10.9934 13.3575
48 1 8.99001 12.8372 5.44675
49 1 4.04829 1.51716 14.6149
50 1 6.69928 13.1999 13.7041
51 1 4.43379 6.10378 9.26553
52 1 11.4216 -0.0969869 13.0672
53 1 8.10878 14.4288 3.40524
54 1 4.3962 2.37166 3.28729
55 1 12.1316 11.4523 8.45349
56 1 8.7458 10.8517 -0.213292
57 1 1.53862 1.7361 8.48855
58 1 8.69585 5.89847 11.616
59 1 1.22107 9.19196 8.49846
60 1 10.635 10.5731 3.14594
61 1 11.4957 4.51089 15.2148
62 1 10.9209 6.7156 10.446
63 1 4.94638 10.4223 10.3546
64 1 7.94749 8.55464 1.09697
65 1 14.5919 7.80968 8.4877
66 1 5.26248 14.7619 3.62401
67 1 5.62202 2.26942 6.97039
68 1 1.29568 -0.0251437 10.348
69 1 11.6689 12.7598 1.5126
70 1 8.10674 4.34492 9.29769
71 1 15.2574 12.5827 5.71394
72 1 5.13758 11.4238 7.95676
73 1 0.807368 7.59384 14.5622
74 1 1.07308 4.35508 11.6836
75 1 -0.103901 0.899318 12.6958
76 1 12.4336 12.7126 5.99741
77 1 6.5124 0.898083 1.44852
78 1 5.22926 7.74021 7.34722
79 1 4.69818 3.85809 0.25821
80 1 14.6318 1.53081 0.260033
81 1 8.7843 1.26425 2.88569
82 1 10.1715 2.86217 10.2074
83 1 1.97586 4.56417 8.94346
84 1 12.6683 15.2799 4.82665
85 1 10.1623 4.44247 4.67024
86 1 8.26116 6.29332 15.2182
87 1 2.75694 2.33071 12.3211
88 1 10.1168 15.0402 10.6766
89 1 0.0214213 11.8389 0.424274
90 1 9.92368 3.73613 12.9889
91 1 7.93039 3.8304 3.09944
92 1 3.45334 12.7245 2.72154
93 1 13.7442 3.34545 8.32257
94 1 1.06378 7.50528 1.70711
95 1 13.5608 9.51663 12.896
96 1 6.16563 2.34739 9.6158
97 1 6.00658 4.12469 4.96415
98 1 13.0409 2.11594 12.6389
99 1 9.44842 7.22402 5.61094
100 1 3.08802 8.31472 10.412
101 1 4.27645 12.564 12.0172
102 1 0.247817 12.7339 12.6695
103 1 6.92237 8.32243 4.80264
104 1 10.2096 9.4039 11.0142
105 1 8.10819 14.6608 9.11245
106 1 0.724807 14.5893 14.8093
107 1 7.38606 3.87893 0.612739
108 1 13.59 6.17467 11.3541
109 1 6.57455 9.82429 14.0409
110 1 6.72525 7.05567 13.1783
111 1 3.66994 10.3273 5.96103
112 1 1.66543 1.60839 5.77048
113 1 9.05834 13.0173 1.11863
114 1 4.11235 0.213829 6.02437
115 1 10.3679 8.11545 2.36753
116 1 3.8208 14.5044 10.4834
117 1 6.27696 11.8524 2.07137
118 1 3.1417 11.1769 14.1451
119 1 12.971 3.21476 1.56998
120 1 12.4061 13.5738 10.1924
121 1 14.0948 6.56232 13.8874
122 1 11.4172 0.689063 2.37021
123 1 1.65778 1.52802 1.12949
124 1 7.74882 0.714644 6.86752
125 1 13.0368 10.8806 0.0461404
126 1 14.1536 3.59273 10.8941
127 1 12.9937 3.74289 4.44237
128 1 4.93288 10.2326 0.481908
129 2 4.52916 4.87676 12.9369
130 2 4.69703 5.06241 14.547
131 2 14.6886 4.58995 14.3163
132 2 0.0945933 3.63697 13.6264
133 2 7.74221 10.0755 4.24889
134 2 8.99342 10.7228 3.34745
135 2 0.788771 4.72927 4.53377
136 2 1.81069 3.95163 3.77685
137 2 14.4008 11.9252 10.4575
138 2 13.9069 10.7269 11.3647
139 2 10.6725 0.201823 0.765773
140 2 9.47367 0.652849 -0.0632908
141 2 13.5922 9.97565 6.76473
142 2 13.2152 10.5455 5.32572
143 2 3.67781 14.0964 8.7488
144 2 3.53939 14.3835 7.27865
145 2 3.09567 5.45978 2.78243
146 2 3.60518 6.19337 4.09913
147 2 5.08995 9.05489 1.76222
148 2 4.54185 7.79795 2.5309
149 2 13.4381 6.67871 2.59019
150 2 14.7355 6.25337 1.79471
151 2 0.77524 9.18308 14.2443
152 2 0.388115 10.6288 14.9234
153 2 14.1894 4.91997 4.56536
154 2 14.9228 6.4107 4.60147
155 2 10.8762 5.93786 7.61697
156 2 9.58879 6.53361 7.20672
157 2 12.1014 7.06547 4.8105
158 2 11.5829 7.27566 3.48345
159 2 9.70669 3.06202 7.62541
160 2 9.96186 3.35305 6.0781
161 2 3.89127 3.51534 11.556
162 2 5.31618 3.63484 11.0911
163 2 8.36256 9.80951 10.99
164 2 7.91946 11.2623 11.3115
165 2 7.80256 2.56448 14.9346
166 2 7.58248 1.21916 14.1315
167 2 6.10462 13.5421 -0.242407
168 2 4.85977 13.825 0.528199
169 2 14.4101 13.8153 10.1623
170 2 -0.0704958 13.4422 11.1966
171 2 11.7088 2.1063 6.54679
172 2 12.6961 1.18401 5.89058
173 2 10.9921 7.5299 13.3514
174 2 11.2636 8.01166 14.7268
175 2 1.57728 7.89927 5.7134
176 2 1.87051 8.36741 7.16573
177 2 11.4302 9.71213 6.20698
178 2 10.3486 10.1292 5.1128
179 2 14.4149 8.445 5.04536
180 2 0.00164071 8.8165 4.03796
181 2 1.02838 11.8189 4.67407
182 2 2.36173 10.8675 4.79517
183 2 6.32838 0.734699 10.265
184 2 5.21972 -0.301306 10.6492
185 2 12.568 9.37229 0.310345
186 2 12.8634 7.95827 0.824663
187 2 2.56428 7.41349 12.0109
188 2 3.14156 6.4193 13.0935
189 2 3.16723 6.41343 5.9805
190 2 3.10221 4.98312 5.63197
191 2 7.73547 13.1577 8.33842
192 2 8.06104 12.6116 6.87934
193 2 1.75422 3.38105 1.7562
194 2 3.25148 3.1727 2.47226
195 2 3.15037 12.6412 14.9757
196 2 3.16776 12.9566 0.983888
197 2 0.0720948 5.37286 6.52711
198 2 -0.245356 6.34024 7.61737
199 2 11.6512 14.8569 8.35832
200 2 11.802 13.9131 7.23812
201 2 2.07792 14.3411 2.56175
202 2 1.50629 0.044002 2.08403
203 2 6.3968 14.9261 13.4491
204 2 6.20534 0.425411 12.4267
205 2 0.660795 9.1318 1.85703
206 2 0.694078 10.391 2.87312
207 2 12.3708 14.0972 13.0916
208 2 12.1841 12.5232 13.366
209 2 2.09163 12.5603 7.87369
210 2 0.901668 12.2269 8.80367
211 2 13.6981 0.109016 0.335681
212 2 13.4443 14.3386 15.279
213 2 14.5376 15.2076 4.93591
214 2 0.228484 14.9795 4.13145
215 2 9.24837 13.4527 11.622
216 2 9.52013 12.2417 12.5392
217 2 12.875 7.30125 7.44426
218 2 13.1287 6.09272 6.70831
219 2 8.70364 11.2231 8.31889
220 2 9.67729 10.2938 7.51515
221 2 10.4955 10.2933 12.7118
222 2 10.0325 10.7711 14.1408
223 2 9.87115 13.0955 5.5737
224 2 8.95145 12.0108 4.93614
225 2 4.74251 0.928236 14.2575
226 2 3.48888 1.81195 13.8977
227 2 7.56401 13.1017 13.1985
228 2 6.02622 12.6782 13.2435
229 2 3.65548 5.64787 8.88705
230 2 4.53028 5.65688 10.1121
231 2 10.7483 -0.0654962 13.7661
232 2 11.7812 0.808853 13.0779
233 2 8.36482 -0.291862 3.46612
234 2 8.34757 14.0066 4.25098
235 2 5.1094 1.81781 2.95108
236 2 4.6411 2.96006 4.03817
237 2 12.5339 11.0417 9.22128
238 2 11.1841 11.2095 8.49369
239 2 8.60742 10.312 0.576946
240 2 8.69537 11.7883 0.0583599
241 2 1.42282 1.68337 7.50469
242 2 1.60998 2.65673 8.73322
243 2 8.87953 5.11923 12.1645
244 2 8.03029 6.40716 12.1505
245 2 1.95332 8.95172 9.16853
246 2 1.28006 10.1574 8.3047
247 2 11.2632 11.2403 2.79611
248 2 10.7957 9.70539 2.72449
249 2 11.5653 5.40273 -0.288322
250 2 11.1896 4.32648 14.2564
251 2 10.4204 6.65681 9.62663
252 2 10.2607 6.46258 11.0571
253 2 5.87632 10.1769 10.5904
254 2 4.94364 10.8143 9.46912
255 2 7.91802 7.6928 0.604333
256 2 7.17835 8.74025 1.63464
257 2 14.2008 7.92642 9.35992
258 2 -0.267797 8.44072 8.55252
259 2 6.16366 14.3915 3.8125
260 2 4.75946 14.0077 3.26281
261 2 6.35085 1.60272 6.90857
262 2 4.84301 1.75402 6.76165
263 2 1.34137 0.662419 9.62968
264 2 0.817817 14.7755 10.0578
265 2 10.8342 13.0339 1.10914
266 2 12.2496 13.5788 1.43103
267 2 7.99168 4.93257 10.0429
268 2 8.59208 4.87508 8.55834
269 2 -0.0863874 13.5026 5.64494
270 2 0.00602987 12.1735 6.56287
271 2 6.0476 11.6847 7.84187
272 2 4.65027 12.2574 7.8746
273 2 -0.10786 7.21382 14.4417
274 2 1.40859 7.20909 13.8607
275 2 1.10879 5.19843 12.1297
276 2 0.142322 4.18446 11.4107
277 2 0.192301 0.569522 11.8253
278 2 0.262058 0.216297 13.3227
279 2 13.325 12.966 5.76917
280 2 12.474 12.1815 6.79075
281 2 6.96454 1.33987 0.72514
282 2 6.22808 -0.0168944 1.14781
283 2 5.28424 6.95392 7.95734
284 2 5.69738 8.44349 7.79401
285 2 4.59695 2.96295 -0.156096
286 2 4.05776 3.8329 1.0606
287 2 14.2623 2.20361 0.861912
288 2 14.7961 2.02476 15.1013
289 2 7.90736 0.984376 2.41964
290 2 8.42535 2.08554 3.23522
291 2 9.33834 3.30929 9.83257
292 2 10.1754 1.88055 10.1119
293 2 1.75381 4.52695 9.90946
294 2 1.11552 4.78978 8.54253
295 2 12.2645 0.0873025 4.07993
296 2 12.0334 14.6435 5.15054
297 2 9.97133 5.30379 5.02216
298 2 9.51596 4.30903 3.95105
299 2 9.11176 6.41377 14.7882
300 2 7.57568 6.54 14.599
301 2 2.07189 2.92609 11.9449
302 2 2.69894 1.52435 11.845
303 2 10.8501 14.3815 10.4642
304 2 10.5118 -0.206863 11.478
305 2 0.274248 12.7719 0.61942
306 2 0.108425 11.2293 1.22179
307 2 9.70727 2.84376 13.3266
308 2 10.3129 3.49932 12.1129
309 2 7.16744 3.93944 3.6373
310 2 7.68964 3.77425 2.12389
311 2 2.7812 12.2345 3.34142
312 2 4.17512 12.108 2.65722
313 2 13.4252 2.63657 7.76521
314 2 14.4885 3.85196 7.85505
315 2 1.16553 7.50623 0.684607
316 2 1.80702 6.9489 2.01705
317 2 14.4305 9.58843 13.243
318 2 13.0187 10.0336 13.4694
319 2 5.70123 2.57075 8.68482
320 2 6.80813 3.05178 9.52933
321 2 5.35787 4.80808 5.12533
322 2 5.96938 3.53575 5.71789
323 2 13.0854 2.74416 13.3668
324 2 13.871 1.59988 12.7008
325 2 8.54415 7.16809 5.28465
326 2 9.76316 8.11779 5.62097
327 2 3.5805 7.58031 10.0651
328 2 3.76188 9.05652 10.3377
329 2 4.55808 11.8882 11.3243
330 2 3.56374 12.075 12.5347
331 2 0.334551 11.7965 12.6005
332 2 0.24849 12.8839 13.5924
333 2 6.35726 8.22802 5.65351
334 2 6.38531 8.12785 4.02112
335 2 10.214 9.5859 10.0692
336 2 10.6644 8.57403 11.1276
337 2 8.95214 14.8857 9.64428
338 2 7.3584 14.7538 9.70982
339 2 0.591563 15.0693 0.0182509
340 2 1.70203 14.3696 14.7724
341 2 6.4741 3.89198 0.306924
342 2 7.8908 4.74294 0.474307
343 2 13.7745 5.25403 11.174
344 2 12.6407 6.3597 11.1641
345 2 6.61181 10.3071 13.1711
346 2 7.38294 10.2018 14.4287
347 2 5.92965 6.53312 13.3142
348 2 6.65131 8.00804 13.4902
349 2 4.1508 10.9057 6.58172
350 2 3.72612 9.43762 6.27968
351 2 0.960879 1.05271 5.33877
352 2 1.48012 2.49213 5.40543
353 2 8.71011 13.4532 1.93204
354 2 8.99593 13.78 0.520382
355 2 3.28533 0.709593 5.89467
356 2 4.52263 -0.105961 5.1872
357 2 10.8957 8.12501 1.5533
358 2 9.392 8.09909 2.00114
359 2 2.85608 14.8006 10.6062
360 2 3.90293 13.7417 11.0449
361 2 6.48734 12.6937 1.54518
362 2 7.04029 11.6822 2.67807
363 2 2.24681 10.7375 14.3261
364 2 3.668 10.6767 14.8241
365 2 12.3482 3.69431 0.972113
366 2 13.2921 3.83378 2.19605
367 2 12.5073 12.8061 9.60602
368 2 12.5354 13.311 11.1419
369 2 13.9506 6.55755 12.8999
370 2 13.4462 7.1125 14.3857
371 2 11.8334 1.45816 2.05064
372 2 10.4376 0.894116 2.52875
373 2 0.844146 1.54638 0.605455
374 2 2.39804 1.38307 0.478242
375 2 7.77884 0.12269 7.66547
376 2 8.60235 1.23456 6.91956
377 2 12.4122 11.5105 0.551261
378 2 13.9301 11.2794 0.187093
379 2 13.8259 3.47873 9.96028
380 2 13.5184 3.1733 11.5056
381 2 12.9666 3.11167 5.2382
382 2 12.0906 4.05916 4.29522
383 2 5.48443 10.7696 1.07083
384 2 5.47524 10.05 -0.286949
ITEM: TIMESTEP
200
ITEM: NUMBER OF ATOMS
384
ITEM: BOX BOUNDS pp pp pp
-2.1868351273538700e-01 1.5218683512735430e+01
-2.1868351273538700e-01 1.5218683512735430e+01
-2.1868351273538700e-01 1.5218683512735430e+01
ITEM: ATOMS id type x y z
1 1 4.49772 5.52874 13.1401
2 1 14.4755 3.87294 13.8519
3 1 7.6358 10.6652 3.80697
4 1 1.71091 3.77536 4.58032
5 1 13.6921 10.1823 10.3474
6 1 9.95907 0.22706 -0.0360017
7 1 13.2702 9.65492 6.06011
8 1 3.33496 13.5262 7.56665
9 1 3.1696 6.56178 2.83938
10 1 5.45714 7.87281 2.58912
11 1 13.7591 6.55637 1.88453
12 1 0.620738 10.0366 13.7483
13 1 14.9348 5.42151 4.91475
14 1 9.87278 5.94336 7.86043
15 1 12.2013 6.95855 4.00592
16 1 9.89533 2.73217 6.75702
17 1 4.72464 3.8918 11.2655
18 1 7.34971 10.3494 11.2846
19 1 8.40923 1.89853 14.3789
20 1 5.83001 13.8986 0.552569
21 1 -0.0979332 13.3299 10.015
22 1 12.5144 1.86984 6.22495
23 1 10.683 7.10966 14.1858
24 1 1.98119 7.83985 6.3109
25 1 10.458 9.15365 5.77429
26 1 15.1147 8.153 4.71082
27 1 1.81613 11.4834 4.37137
28 1 5.92283 0.279995 10.5767
29 1 12.2311 8.05676 0.320579
30 1 2.22689 6.48353 12.3039
31 1 3.562 5.69404 5.3339
32 1 7.70363 11.9259 7.8358
33 1 3.1881 3.56723 2.15692
34 1 3.08885 13.2131 0.186228
35 1 -0.113743 5.34272 7.61715
36 1 10.6512 14.5864 7.3555
37 1 1.19707 14.5 2.24886
38 1 6.06807 0.457249 13.3502
39 1 0.462026 9.89642 2.83571
40 1 12.2109 13.0507 12.5756
41 1 0.950433 12.2613 8.01797
42 1 13.4979 14.3147 0.199284
43 1 -0.0553158 15.0186 4.51882
44 1 8.5095 12.7603 11.7422
45 1 12.4457 6.35384 6.79295
46 1 9.68469 10.3397 8.17465
47 1 10.386 10.9872 12.8695
48 1 8.79876 12.4514 5.36549
49 1 3.89588 1.67905 14.2134
50 1 6.4435 13.226 13.4659
51 1 4.10826 5.94065 9.34647
52 1 11.196 -0.0666613 13.051
53 1 7.56412 14.1907 3.54286
54 1 4.69745 2.02743 3.52947
55 1 12.2212 11.2788 8.35667
56 1 8.84009 10.4503 -0.162692
57 1 1.65057 1.78141 8.31003
58 1 8.42949 5.57108 11.5544
59 1 1.17362 9.09428 8.50908
60 1 10.4041 10.4168 3.36037
61 1 11.6129 4.37998 14.857
62 1 10.5454 6.89633 10.4573
63 1 4.94125 10.2701 10.1435
64 1 7.96871 8.06427 1.31632
65 1 14.3156 7.53995 8.63393
66 1 4.86709 14.7858 3.70227
67 1 5.76505 1.93624 6.84617
68 1 1.3443 0.389777 10.3229
69 1 11.5559 12.4459 1.67352
70 1 8.32051 4.2072 9.30307
71 1 15.2107 12.6094 5.65799
72 1 4.93009 11.3097 7.60862
73 1 0.911598 7.48409 14.2974
74 1 1.08378 4.23535 11.8327
75 1 -0.0618975 0.569195 12.746
76 1 12.369 12.4803 5.98539
77 1 6.225 1.02088 1.43578
78 1 5.56539 8.02696 6.99139
79 1 4.60717 4.03976 -0.193966
80 1 14.6006 1.73924 0.301738
81 1 8.50659 1.28086 2.68273
82 1 10.1289 2.60873 10.2541
83 1 1.87364 4.31829 8.87186
84 1 12.6586 15.0401 4.24458
85 1 10.2032 4.76864 4.88672
86 1 8.3154 6.29561 14.9302
87 1 2.74316 2.23571 12.0077
88 1 9.97485 14.8029 10.7937
89 1 15.2162 11.2394 0.742514
90 1 9.65325 3.61126 12.7704
91 1 7.99094 3.83809 3.54798
92 1 3.35147 12.6778 2.73545
93 1 13.5357 3.55064 8.16706
94 1 0.766224 7.57902 1.72354
95 1 13.3333 9.99451 12.7847
96 1 6.15159 2.75765 9.2582
97 1 5.83619 3.84462 5.14145
98 1 13.0542 1.85033 12.6623
99 1 8.98736 7.0206 5.47015
100 1 3.08151 8.17541 10.2498
101 1 4.33868 12.228 12.0396
102 1 0.566436 12.6852 12.4187
103 1 6.81732 8.501 4.69417
104 1 9.7772 9.50839 10.808
105 1 7.84158 14.5164 9.02432
106 1 0.805105 14.406 14.5915
107 1 7.38854 3.92305 0.408212
108 1 13.3709 6.61164 10.8224
109 1 6.67706 9.5753 13.7021
110 1 6.72823 6.89412 13.082
111 1 3.55886 9.85892 5.59518
112 1 1.50592 1.16041 5.72113
113 1 9.11719 13.2906 1.0454
114 1 3.94893 0.158797 6.1496
115 1 10.4632 8.06263 2.28292
116 1 3.76407 14.2652 10.3429
117 1 5.70562 11.5888 2.17251
118 1 3.16853 11.0655 14.1667
119 1 12.3797 2.973 1.57509
120 1 12.458 13.6373 10.0452
121 1 13.8762 6.56065 13.6524
122 1 11.1742 0.928678 2.4638
123 1 1.71352 1.35038 1.09478
124 1 8.03971 0.647967 6.64399
125 1 12.6653 10.6292 -0.174737
126 1 13.9615 3.81143 10.7736
127 1 12.6026 4.14719 4.10758
128 1 4.96232 9.729 0.429824
129 2 4.83821 5.0574 12.1327
130 2 4.52908 5.11276 14.0864
131 2 14.1905 4.83133 13.7319
132 2 -0.0342899 3.66805 13.0873
133 2 7.13778 9.76168 4.23254
134 2 8.46538 10.3566 3.36372
135 2 0.946394 4.23565 4.5461
136 2 1.96735 3.81303 3.68793
137 2 14.4833 10.7279 10.2935
138 2 13.5623 10.0931 11.3112
139 2 10.4997 0.621323 0.826057
140 2 9.38463 0.948171 15.0857
141 2 13.4491 9.50243 7.02234
142 2 13.057 10.6679 6.04494
143 2 3.50579 13.8843 8.58992
144 2 3.69444 14.2664 7.08621
145 2 3.20542 5.86026 2.1326
146 2 3.22063 6.09151 3.69046
147 2 5.28307 8.55286 1.93086
148 2 4.75802 7.32641 2.60527
149 2 13.2097 6.60999 2.70876
150 2 14.6042 7.24259 1.85066
151 2 0.929625 9.20315 13.6881
152 2 0.517797 10.4182 14.7419
153 2 14.3037 4.99137 4.30307
154 2 15.1079 6.41631 4.76697
155 2 10.8089 6.03958 7.51938
156 2 9.12019 6.22557 7.30491
157 2 12.5051 6.93037 4.98796
158 2 11.4481 7.59954 3.71168
159 2 9.65028 2.80881 7.67614
160 2 10.105 3.60829 6.40273
161 2 4.0703 3.21118 11.6373
162 2 5.28436 3.62087 10.6308
163 2 8.27067 9.89337 11.1019
164 2 7.6065 11.3798 11.2219
165 2 8.18557 2.7856 14.9669
166 2 7.60766 1.91959 13.883
167 2 6.35927 13.3612 15.1478
168 2 5.01116 13.7085 0.249251
169 2 14.5107 13.4554 9.87156
170 2 0.17168 13.0289 11.3509
171 2 11.5151 1.96817 6.26886
172 2 12.7164 1.15175 5.70623
173 2 10.6819 7.40377 13.361
174 2 11.2679 7.47413 14.977
175 2 1.26008 7.85045 5.65778
176 2 1.52289 8.22124 7.1795
177 2 11.3365 9.00801 5.78147
178 2 10.4758 9.83365 4.97028
179 2 14.3382 8.64319 5.22218
180 2 -0.0451002 8.6549 3.87397
181 2 1.02505 11.8819 4.96671
182 2 2.51399 10.9184 4.7972
183 2 6.14997 1.01739 9.9712
184 2 5.05774 -0.191845 10.5969
185 2 12.8269 8.92382 -0.00215055
186 2 12.9415 7.37705 0.774063
187 2 2.47141 7.17245 11.5175
188 2 3.18883 6.29342 12.6897
189 2 3.03363 6.49217 5.6418
190 2 2.94022 5.03876 5.08184
191 2 7.80762 12.7344 8.23055
192 2 8.08215 12.2415 7.01276
193 2 2.53272 2.9591 1.65064
194 2 3.7094 3.19823 2.75288
195 2 3.07159 12.4 15.1934
196 2 3.02098 13.114 1.14034
197 2 -0.184835 5.37525 6.64814
198 2 14.8824 6.23945 7.89561
199 2 11.3931 -0.132477 7.28206
200 2 11.1361 13.8844 6.92247
201 2 2.06956 14.1762 2.50255
202 2 1.33489 0.0118404 1.88478
203 2 6.08759 14.9466 13.4437
204 2 5.88081 0.478676 12.3412
205 2 1.10089 9.22337 2.30267
206 2 1.03395 10.4428 3.37081
207 2 11.6535 13.7804 12.7379
208 2 11.7204 12.3303 12.652
209 2 1.71388 12.8996 8.00238
210 2 0.532166 12.8115 8.6243
211 2 13.4532 -0.189031 0.350956
212 2 13.3387 13.9889 14.768
213 2 14.3763 14.9489 4.22561
214 2 0.61623 14.843 3.72888
215 2 8.95432 13.584 11.2572
216 2 9.28146 12.4155 12.2816
217 2 13.023 6.77369 7.55033
218 2 12.8459 5.42718 6.82659
219 2 8.73585 10.7706 8.14869
220 2 9.73326 9.71779 7.27109
221 2 10.3117 10.3619 11.8644
222 2 9.92448 10.6522 13.7057
223 2 9.85102 12.3463 5.24358
224 2 8.39448 11.6434 4.93992
225 2 4.69505 1.20875 13.9153
226 2 3.31787 1.74965 13.2882
227 2 7.24701 12.9111 13.0306
228 2 5.69147 12.8004 13.0478
229 2 3.22883 5.3676 9.01437
230 2 4.57393 5.47217 10.1086
231 2 10.8777 0.111006 13.8853
232 2 12.0442 0.711012 12.9817
233 2 7.87007 15.2121 3.43096
234 2 8.1708 13.6495 4.2221
235 2 5.30286 1.37029 2.93177
236 2 5.23414 2.6852 4.09485
237 2 12.5166 10.7071 9.1118
238 2 11.4552 10.517 8.30889
239 2 8.63579 9.76276 0.661901
240 2 8.77472 11.2718 0.269228
241 2 1.45619 1.46588 7.24
242 2 1.84656 2.7182 8.52191
243 2 8.87991 4.93226 11.9705
244 2 7.9268 6.12813 12.1285
245 2 1.72577 8.90729 9.24945
246 2 1.07079 10.0298 8.45283
247 2 10.8398 11.0507 2.79624
248 2 10.4959 9.5788 2.9197
249 2 11.1638 5.19503 14.933
250 2 11.0428 3.98532 14.2068
251 2 10.5162 6.33942 9.68166
252 2 9.76221 6.42203 11.0195
253 2 5.74421 10.1516 10.514
254 2 4.97348 10.7474 9.23219
255 2 7.76952 7.31165 0.839107
256 2 7.17333 7.92669 1.84436
257 2 13.9216 7.29292 9.61527
258 2 14.7498 8.43438 8.81993
259 2 5.89956 14.4997 3.83309
260 2 4.59523 13.9253 3.43206
261 2 6.73345 1.55587 6.74045
262 2 5.2085 1.27597 6.77881
263 2 1.18422 0.751412 9.49144
264 2 0.681309 14.9565 10.2854
265 2 10.6621 12.8964 1.37274
266 2 12.4348 13.037 1.74116
267 2 8.00083 4.58308 10.1316
268 2 8.84528 4.83531 8.50856
269 2 -0.076211 13.4404 5.17846
270 2 0.168472 12.5182 6.61433
271 2 5.84011 11.4416 7.49797
272 2 4.3302 12.1339 7.73669
273 2 0.155123 7.06701 14.49
274 2 1.29641 6.98888 13.6002
275 2 1.44903 5.20343 11.979
276 2 0.155307 4.3206 11.3882
277 2 0.475177 0.666245 11.7941
278 2 0.639541 0.427402 13.3765
279 2 13.3667 12.6134 5.96781
280 2 12.2639 12.1219 7.07629
281 2 6.32642 1.2831 0.513845
282 2 5.91089 0.0891782 1.27553
283 2 5.02249 7.32617 7.40997
284 2 5.09429 8.81416 7.31133
285 2 4.36641 3.13991 14.7343
286 2 4.16812 3.89142 0.642808
287 2 13.914 2.24545 0.92721
288 2 14.5921 2.52204 15.072
289 2 7.74818 1.13125 2.11604
290 2 8.32189 2.10497 3.27119
291 2 9.37138 3.10212 9.69473
292 2 10.3024 1.73236 10.163
293 2 1.6528 4.23921 9.78532
294 2 1.13681 4.86982 8.52084
295 2 11.8873 0.0718645 3.69474
296 2 12.3521 14.1623 4.51189
297 2 10.0162 5.67652 4.89746
298 2 9.47872 4.384 4.2938
299 2 9.07874 6.9486 14.6026
300 2 7.54145 6.34965 14.2836
301 2 2.09843 2.92091 12.1041
302 2 2.48879 1.63796 11.2868
303 2 10.808 14.4634 10.2967
304 2 10.2701 -0.179517 11.557
305 2 -0.208661 12.3495 0.751209
306 2 0.0862294 10.8005 1.65299
307 2 9.2743 2.76883 13.2885
308 2 10.2783 3.31771 12.1482
309 2 7.23507 4.04351 4.25973
310 2 7.86305 4.27217 2.65453
311 2 2.89516 12.3195 3.40052
312 2 4.16813 11.9707 2.80622
313 2 13.2847 2.7928 7.66064
314 2 14.3877 3.90538 7.89164
315 2 0.938678 7.46698 0.775131
316 2 1.50853 7.01145 2.23321
317 2 14.2442 10.1222 12.9627
318 2 12.8633 10.3271 13.6334
319 2 5.94818 2.64147 8.29103
320 2 7.00849 3.19185 9.20192
321 2 5.2543 4.59726 5.1797
322 2 5.59642 3.11552 5.90561
323 2 13.2792 2.58578 13.376
324 2 13.8463 1.47396 12.6964
325 2 8.16612 7.38484 4.94303
326 2 9.31867 7.92839 5.65327
327 2 3.54536 7.32022 9.96474
328 2 3.77491 8.82446 10.4141
329 2 4.67148 11.5032 11.2364
330 2 3.93214 11.7592 12.8085
331 2 0.266075 11.7385 12.721
332 2 0.625318 13.3325 13.0749
333 2 6.23747 8.39314 5.58807
334 2 6.24341 8.10751 4.06394
335 2 9.79143 10.0753 10.0037
336 2 10.0755 8.55148 10.6926
337 2 8.72899 14.8824 9.4068
338 2 7.1002 14.7419 9.78964
339 2 0.0227806 14.4575 -0.163393
340 2 1.55763 14.0286 15.1661
341 2 6.51085 4.13918 0.308537
342 2 7.73553 4.74413 0.281132
343 2 13.3284 5.58764 10.6394
344 2 12.5116 6.87481 10.732
345 2 6.7601 10.0764 12.6993
346 2 7.54268 9.66477 14.0941
347 2 5.87932 6.27844 13.0428
348 2 6.73159 7.86451 13.4278
349 2 3.71056 10.4722 6.24527
350 2 3.13002 8.81891 5.81822
351 2 1.00169 0.528847 5.44939
352 2 1.56409 2.0425 5.20738
353 2 8.68975 13.4386 1.81649
354 2 9.58268 14.2188 0.64285
355 2 3.22872 0.515061 5.77621
356 2 4.16998 15.1321 5.27143
357 2 10.9002 7.89139 1.36034
358 2 9.4314 7.80108 1.9669
359 2 2.82861 14.7205 10.1752
360 2 3.63614 13.698 11.0158
361 2 6.02071 12.7198 2.04229
362 2 6.3862 11.2486 3.12585
363 2 2.2784 10.6291 14.1976
364 2 3.88433 10.56 14.7436
365 2 11.8055 3.49604 0.914537
366 2 12.4731 3.62775 2.29143
367 2 12.3297 12.9676 9.27023
368 2 12.6396 13.2331 11.0281
369 2 13.9847 6.79975 12.7066
370 2 13.1387 6.75494 14.1217
371 2 11.6703 1.71269 2.20403
372 2 10.2686 1.02656 2.71782
373 2 0.896755 1.68033 0.631124
374 2 2.12093 1.2502 0.233672
375 2 8.09031 -0.0129379 7.38812
376 2 8.89508 1.2424 6.71517
377 2 12.1558 11.1939 0.421836
378 2 13.5462 10.8808 0.193872
379 2 14.0797 3.73678 9.90441
380 2 13.746 2.91729 11.1258
381 2 12.573 3.32818 4.61865
382 2 11.7256 4.52577 4.50728
383 2 5.28609 10.5031 0.826578
384 2 5.57391 9.39852 15.1709
ITEM: TIMESTEP
400
ITEM: NUMBER OF ATOMS
384
ITEM: BOX BOUNDS pp pp pp
-1.3021218416963443e-01 1.5130212184169675e+01
-1.3021218416963443e-01 1.5130212184169675e+01
-1.3021218416963443e-01 1.5130212184169675e+01
ITEM: ATOMS id type x y z
1 1 4.53556 5.37811 12.6042
2 1 14.6051 3.89094 14.1069
3 1 7.2443 10.8156 3.39642
4 1 1.74746 3.46859 4.39932
5 1 13.5607 9.67749 9.89761
6 1 9.47398 -0.0413901 15.0653
7 1 13.3654 9.71403 6.37931
8 1 3.45672 13.0264 7.9532
9 1 3.39496 6.10523 2.51016
10 1 5.57234 7.52482 2.13133
11 1 13.8317 6.69348 1.95357
12 1 0.684701 10.0907 13.9543
13 1 15.1125 5.247 4.87638
14 1 9.65142 6.45459 8.08339
15 1 12.2362 6.76148 4.46635
16 1 10.2043 2.6181 6.74677
17 1 4.6244 3.80804 10.6311
18 1 6.86169 10.5116 11.1259
19 1 7.96226 2.04673 14.422
20 1 5.79752 13.5984 0.530658
21 1 -0.110832 13.3529 10.0237
22 1 12.2526 1.91405 5.67162
23 1 10.75 6.43915 13.4281
24 1 2.02333 7.95398 6.43178
25 1 10.6717 9.06146 5.74813
26 1 14.9935 7.87627 4.78618
27 1 1.63142 11.2315 4.45649
28 1 5.94686 0.557959 10.4282
29 1 12.2583 7.88997 0.0676249
30 1 2.05577 6.44183 12.0535
31 1 3.31716 5.68886 5.26428
32 1 7.53962 11.9955 7.7868
33 1 3.25718 3.43648 1.91033
34 1 3.27714 12.9854 0.0548576
35 1 0.0187366 4.96481 7.45631
36 1 10.5391 14.6917 7.32895
37 1 1.01205 14.2099 1.77112
38 1 5.93739 0.913961 13.0543
39 1 0.408239 9.72745 2.78805
40 1 12.2841 12.9932 12.4328
41 1 1.14045 11.9913 8.15014
42 1 13.4877 13.8751 15.1077
43 1 15.1232 14.8753 4.13399
44 1 8.36526 12.8036 11.9082
45 1 12.0673 5.97569 7.11533
46 1 9.72011 10.3313 7.92033
47 1 10.1042 10.9387 12.811
48 1 8.51631 12.3641 5.37293
49 1 3.69773 1.72475 13.9663
50 1 6.13745 13.4086 13.1885
51 1 4.10176 6.16083 8.7295
52 1 11.1556 0.0912893 12.8738
53 1 7.38586 13.9835 3.56162
54 1 4.56345 2.11963 3.7072
55 1 12.1503 11.2544 8.55541
56 1 8.86206 10.1928 -0.0429927
57 1 2.06021 1.43258 8.21789
58 1 8.53125 5.26689 11.6455
59 1 0.704536 9.44042 8.79395
60 1 10.1305 10.5881 3.64394
61 1 11.5964 3.91869 14.3948
62 1 10.0779 7.06062 10.5174
63 1 4.66258 10.1315 9.72699
64 1 8.17239 8.11741 1.51283
65 1 14.0355 7.27053 8.08294
66 1 4.86297 14.7055 3.73193
67 1 5.76631 1.74662 6.46867
68 1 1.45596 0.143383 10.3197
69 1 11.1855 12.5829 1.93171
70 1 8.77979 3.95358 9.23813
71 1 15.0214 12.6045 5.63555
72 1 4.97859 11.0951 7.21114
73 1 0.806626 7.57014 14.1788
74 1 0.563658 4.18573 11.6125
75 1 15.0629 0.752422 12.6441
76 1 12.3581 12.7425 6.00494
77 1 6.3012 0.994255 1.17123
78 1 5.57756 8.05085 7.46031
79 1 4.75712 4.02898 15.0207
80 1 14.5768 1.70459 0.567344
81 1 8.15638 1.22687 2.98459
82 1 10.3434 1.96442 10.5296
83 1 2.05146 4.20806 8.83499
84 1 12.3591 14.937 4.34867
85 1 9.77513 4.56386 4.97508
86 1 8.31019 6.11952 14.8182
87 1 2.62028 2.25351 11.5494
88 1 10.1822 14.5576 10.6407
89 1 14.783 11.3366 1.03888
90 1 9.59437 3.2018 12.6829
91 1 7.60388 3.75768 3.47912
92 1 3.10104 12.7048 2.81448
93 1 13.1276 3.6388 7.90708
94 1 1.25381 7.66774 1.64831
95 1 13.2455 9.8269 12.6082
96 1 6.43049 2.84868 8.90494
97 1 6.05275 4.44032 5.53643
98 1 12.8265 2.17793 12.4424
99 1 8.72624 7.24107 5.77045
100 1 2.81272 8.12326 9.94327
101 1 4.2474 12.1018 11.7543
102 1 1.03088 12.2463 12.1268
103 1 6.52065 8.38039 4.64505
104 1 9.25627 9.51968 10.6155
105 1 7.55825 14.4138 8.7179
106 1 0.943485 13.9767 14.0409
107 1 7.09108 3.95746 0.991559
108 1 12.5065 6.53477 11.0307
109 1 6.98631 9.4639 13.6471
110 1 6.78936 6.92519 12.7524
111 1 3.82365 9.7039 5.13011
112 1 1.39929 1.06474 5.68169
113 1 8.75824 12.9568 1.20107
114 1 3.64531 15.0008 6.32944
115 1 10.6903 8.21603 2.58049
116 1 3.84033 14.2149 10.1406
117 1 5.17177 11.3479 1.81773
118 1 3.19814 10.8317 14.018
119 1 12.1742 2.95722 1.68819
120 1 12.3947 13.4851 9.76633
121 1 13.7781 6.66365 13.3427
122 1 10.8395 0.705653 2.43421
123 1 1.80856 1.57443 0.885566
124 1 8.20307 0.715484 6.03343
125 1 12.319 10.4306 0.147339
126 1 13.3209 4.02665 10.6228
127 1 12.9295 3.96031 4.35473
128 1 4.70233 9.43545 0.16442
129 2 4.67675 4.68079 11.9357
130 2 4.46454 4.82939 13.4914
131 2 13.9888 4.61946 14.2042
132 2 0.170343 3.99376 13.4574
133 2 7.01742 9.9238 3.94881
134 2 8.22385 10.7052 3.0897
135 2 1.0039 4.21761 4.38625
136 2 2.14397 3.57452 3.51164
137 2 14.5032 9.40009 9.66808
138 2 13.3249 9.42017 10.9773
139 2 9.90719 0.260794 0.645827
140 2 8.81296 0.70741 14.8789
141 2 13.2226 10.0356 7.32489
142 2 13.3749 10.6111 5.93305
143 2 3.62178 13.5179 8.70582
144 2 3.35908 13.6032 7.24173
145 2 3.1501 5.24427 2.26963
146 2 3.19754 6.06335 3.55973
147 2 5.16833 8.24945 1.66208
148 2 4.83529 7.01421 2.2795
149 2 13.4929 6.609 2.91568
150 2 14.6884 6.80845 2.10398
151 2 0.881263 8.99437 14.0272
152 2 0.0396204 10.4168 14.6663
153 2 14.1218 4.81426 4.5459
154 2 15.0991 6.2318 4.72882
155 2 10.4602 5.99099 7.60835
156 2 9.03894 6.97503 7.46842
157 2 12.2622 6.70943 5.38762
158 2 11.5243 7.2864 4.12634
159 2 9.75786 2.84674 7.6988
160 2 10.2216 3.46077 6.28457
161 2 3.9307 3.28757 10.9511
162 2 5.12197 3.55369 9.92216
163 2 7.81283 9.76028 10.9218
164 2 7.31312 11.5898 11.0848
165 2 7.833 2.64135 15.0761
166 2 7.1194 1.66516 13.9894
167 2 6.00684 13.4433 14.8265
168 2 4.78306 13.3598 0.354517
169 2 14.1413 13.3902 9.86298
170 2 0.00247262 13.0793 10.8962
171 2 11.5866 1.86242 6.39045
172 2 12.4808 1.07495 5.36159
173 2 11.3285 6.27964 12.6957
174 2 11.4294 6.92149 14.174
175 2 1.20616 8.00889 5.84021
176 2 1.7758 8.40233 7.22877
177 2 11.7138 9.15067 6.01801
178 2 10.489 9.45398 4.77159
179 2 14.2308 8.22473 5.03123
180 2 -0.000798168 8.5471 4.05858
181 2 1.28707 11.8493 5.12584
182 2 2.2969 10.6303 5.02088
183 2 6.3506 1.33534 9.81813
184 2 5.18552 -0.023217 10.1952
185 2 12.4454 8.9181 0.0310341
186 2 12.8256 7.36337 0.55391
187 2 2.42181 7.16814 11.4782
188 2 2.95294 5.85528 12.0661
189 2 2.91628 6.42608 5.62478
190 2 2.75009 4.92128 5.12974
191 2 7.33766 12.7843 8.21365
192 2 7.90784 12.2481 6.86466
193 2 2.5772 2.59754 1.57404
194 2 3.87333 2.79456 2.21924
195 2 3.34141 11.8663 14.7563
196 2 3.29024 12.8054 0.931892
197 2 0.00785676 5.17325 6.38175
198 2 14.9913 5.83204 7.79856
199 2 10.7872 14.9299 8.14738
200 2 11.4282 14.2234 6.84647
201 2 1.91378 13.6449 2.02389
202 2 1.46129 -0.0311222 1.48582
203 2 6.09024 0.0758942 13.3875
204 2 6.09163 0.908307 11.9787
205 2 1.044 9.2224 2.45814
206 2 1.08569 10.3709 3.27582
207 2 11.7889 13.7293 12.8228
208 2 11.7197 12.2957 12.6329
209 2 1.99812 12.2078 8.02018
210 2 0.719804 12.4341 8.97813
211 2 13.5216 14.9368 14.7989
212 2 13.2891 13.5622 14.3047
213 2 14.2015 15.0048 4.17063
214 2 0.235776 14.6583 3.18738
215 2 8.94367 13.3711 11.4568
216 2 8.99569 12.0244 12.2485
217 2 12.6079 6.6032 7.83604