ITEM: TIMESTEP
0
ITEM: NUMBER OF ATOMS
384
ITEM: BOX BOUNDS pp pp pp
-3.1180958401302572e-01 1.5311809584013066e+01
-3.1180958401302572e-01 1.5311809584013066e+01
-3.1180958401302572e-01 1.5311809584013066e+01
ITEM: ATOMS id type x y z
1 1 4.57679 5.50123 13.6944
2 1 14.8875 3.66367 14.1079
3 1 8.20115 10.8513 3.91518
4 1 1.55859 4.11103 4.68534
5 1 14.0046 11.0534 10.4291
6 1 10.1562 -0.0244194 -0.0179537
7 1 13.1461 9.78511 5.92123
8 1 3.48566 13.6848 7.87681
9 1 3.32305 6.30373 3.20589
10 1 5.30735 8.37688 2.36991
11 1 13.7801 6.32188 1.70807
12 1 0.692367 10.1945 14.1186
13 1 15.0627 5.43363 4.6639
14 1 9.98456 5.97612 7.92121
15 1 12.4056 7.19481 3.96576
16 1 9.83562 2.64919 6.79506
17 1 4.60459 4.17249 11.4106
18 1 7.55062 10.3381 11.1669
19 1 8.27543 1.89543 14.4455
20 1 5.83253 14.0038 0.549654
21 1 -0.277952 13.5963 10.2649
22 1 12.6457 2.09652 6.28487
23 1 10.7129 7.40871 14.2399
24 1 2.2119 7.88472 6.40809
25 1 10.4542 9.69036 5.97773
26 1 -0.282536 8.22967 4.81222
27 1 1.6652 11.2607 4.20606
28 1 6.17365 -0.094545 10.725
29 1 12.1932 8.4542 0.381712
30 1 2.29814 6.67565 12.652
31 1 3.74006 5.65533 5.77839
32 1 7.64075 12.3667 7.75101
33 1 2.57949 3.81144 2.08856
34 1 3.31976 13.3432 0.0677147
35 1 -0.0967938 5.37115 7.46928
36 1 11.1426 14.5448 7.59235
37 1 1.26174 14.8074 2.57217
38 1 6.41618 0.335516 13.3898
39 1 0.207637 9.92258 2.18818
40 1 12.6731 13.1901 12.8323
41 1 1.29363 11.9761 7.9846
42 1 13.2286 14.8362 0.439531
43 1 -0.123887 15.1905 5.01064
44 1 8.80795 12.7708 12.0788
45 1 12.4172 6.75949 6.79319
46 1 9.49869 10.6014 8.40823
47 1 10.544 10.9934 13.3575
48 1 8.99001 12.8372 5.44675
49 1 4.04829 1.51716 14.6149
50 1 6.69928 13.1999 13.7041
51 1 4.43379 6.10378 9.26553
52 1 11.4216 -0.0969869 13.0672
53 1 8.10878 14.4288 3.40524
54 1 4.3962 2.37166 3.28729
55 1 12.1316 11.4523 8.45349
56 1 8.7458 10.8517 -0.213292
57 1 1.53862 1.7361 8.48855
58 1 8.69585 5.89847 11.616
59 1 1.22107 9.19196 8.49846
60 1 10.635 10.5731 3.14594
61 1 11.4957 4.51089 15.2148
62 1 10.9209 6.7156 10.446
63 1 4.94638 10.4223 10.3546
64 1 7.94749 8.55464 1.09697
65 1 14.5919 7.80968 8.4877
66 1 5.26248 14.7619 3.62401
67 1 5.62202 2.26942 6.97039
68 1 1.29568 -0.0251437 10.348
69 1 11.6689 12.7598 1.5126
70 1 8.10674 4.34492 9.29769
71 1 15.2574 12.5827 5.71394
72 1 5.13758 11.4238 7.95676
73 1 0.807368 7.59384 14.5622
74 1 1.07308 4.35508 11.6836
75 1 -0.103901 0.899318 12.6958
76 1 12.4336 12.7126 5.99741
77 1 6.5124 0.898083 1.44852
78 1 5.22926 7.74021 7.34722
79 1 4.69818 3.85809 0.25821
80 1 14.6318 1.53081 0.260033
81 1 8.7843 1.26425 2.88569
82 1 10.1715 2.86217 10.2074
83 1 1.97586 4.56417 8.94346
84 1 12.6683 15.2799 4.82665
85 1 10.1623 4.44247 4.67024
86 1 8.26116 6.29332 15.2182
87 1 2.75694 2.33071 12.3211
88 1 10.1168 15.0402 10.6766
89 1 0.0214213 11.8389 0.424274
90 1 9.92368 3.73613 12.9889
91 1 7.93039 3.8304 3.09944
92 1 3.45334 12.7245 2.72154
93 1 13.7442 3.34545 8.32257
94 1 1.06378 7.50528 1.70711
95 1 13.5608 9.51663 12.896
96 1 6.16563 2.34739 9.6158
97 1 6.00658 4.12469 4.96415
98 1 13.0409 2.11594 12.6389
99 1 9.44842 7.22402 5.61094
100 1 3.08802 8.31472 10.412
101 1 4.27645 12.564 12.0172
102 1 0.247817 12.7339 12.6695
103 1 6.92237 8.32243 4.80264
104 1 10.2096 9.4039 11.0142
105 1 8.10819 14.6608 9.11245
106 1 0.724807 14.5893 14.8093
107 1 7.38606 3.87893 0.612739
108 1 13.59 6.17467 11.3541
109 1 6.57455 9.82429 14.0409
110 1 6.72525 7.05567 13.1783
111 1 3.66994 10.3273 5.96103
112 1 1.66543 1.60839 5.77048
113 1 9.05834 13.0173 1.11863
114 1 4.11235 0.213829 6.02437
115 1 10.3679 8.11545 2.36753
116 1 3.8208 14.5044 10.4834
117 1 6.27696 11.8524 2.07137
118 1 3.1417 11.1769 14.1451
119 1 12.971 3.21476 1.56998
120 1 12.4061 13.5738 10.1924
121 1 14.0948 6.56232 13.8874
122 1 11.4172 0.689063 2.37021
123 1 1.65778 1.52802 1.12949
124 1 7.74882 0.714644 6.86752
125 1 13.0368 10.8806 0.0461404
126 1 14.1536 3.59273 10.8941
127 1 12.9937 3.74289 4.44237
128 1 4.93288 10.2326 0.481908
129 2 4.52916 4.87676 12.9369
130 2 4.69703 5.06241 14.547
131 2 14.6886 4.58995 14.3163
132 2 0.0945933 3.63697 13.6264
133 2 7.74221 10.0755 4.24889
134 2 8.99342 10.7228 3.34745
135 2 0.788771 4.72927 4.53377
136 2 1.81069 3.95163 3.77685
137 2 14.4008 11.9252 10.4575
138 2 13.9069 10.7269 11.3647
139 2 10.6725 0.201823 0.765773
140 2 9.47367 0.652849 -0.0632908
141 2 13.5922 9.97565 6.76473
142 2 13.2152 10.5455 5.32572
143 2 3.67781 14.0964 8.7488
144 2 3.53939 14.3835 7.27865
145 2 3.09567 5.45978 2.78243
146 2 3.60518 6.19337 4.09913
147 2 5.08995 9.05489 1.76222
148 2 4.54185 7.79795 2.5309
149 2 13.4381 6.67871 2.59019
150 2 14.7355 6.25337 1.79471
151 2 0.77524 9.18308 14.2443
152 2 0.388115 10.6288 14.9234
153 2 14.1894 4.91997 4.56536
154 2 14.9228 6.4107 4.60147
155 2 10.8762 5.93786 7.61697
156 2 9.58879 6.53361 7.20672
157 2 12.1014 7.06547 4.8105
158 2 11.5829 7.27566 3.48345
159 2 9.70669 3.06202 7.62541
160 2 9.96186 3.35305 6.0781
161 2 3.89127 3.51534 11.556
162 2 5.31618 3.63484 11.0911
163 2 8.36256 9.80951 10.99
164 2 7.91946 11.2623 11.3115
165 2 7.80256 2.56448 14.9346
166 2 7.58248 1.21916 14.1315
167 2 6.10462 13.5421 -0.242407
168 2 4.85977 13.825 0.528199
169 2 14.4101 13.8153 10.1623
170 2 -0.0704958 13.4422 11.1966
171 2 11.7088 2.1063 6.54679
172 2 12.6961 1.18401 5.89058
173 2 10.9921 7.5299 13.3514
174 2 11.2636 8.01166 14.7268
175 2 1.57728 7.89927 5.7134
176 2 1.87051 8.36741 7.16573
177 2 11.4302 9.71213 6.20698
178 2 10.3486 10.1292 5.1128
179 2 14.4149 8.445 5.04536
180 2 0.00164071 8.8165 4.03796
181 2 1.02838 11.8189 4.67407
182 2 2.36173 10.8675 4.79517
183 2 6.32838 0.734699 10.265
184 2 5.21972 -0.301306 10.6492
185 2 12.568 9.37229 0.310345
186 2 12.8634 7.95827 0.824663
187 2 2.56428 7.41349 12.0109
188 2 3.14156 6.4193 13.0935
189 2 3.16723 6.41343 5.9805
190 2 3.10221 4.98312 5.63197
191 2 7.73547 13.1577 8.33842
192 2 8.06104 12.6116 6.87934
193 2 1.75422 3.38105 1.7562
194 2 3.25148 3.1727 2.47226
195 2 3.15037 12.6412 14.9757
196 2 3.16776 12.9566 0.983888
197 2 0.0720948 5.37286 6.52711
198 2 -0.245356 6.34024 7.61737
199 2 11.6512 14.8569 8.35832
200 2 11.802 13.9131 7.23812
201 2 2.07792 14.3411 2.56175
202 2 1.50629 0.044002 2.08403
203 2 6.3968 14.9261 13.4491
204 2 6.20534 0.425411 12.4267
205 2 0.660795 9.1318 1.85703
206 2 0.694078 10.391 2.87312
207 2 12.3708 14.0972 13.0916
208 2 12.1841 12.5232 13.366
209 2 2.09163 12.5603 7.87369
210 2 0.901668 12.2269 8.80367
211 2 13.6981 0.109016 0.335681
212 2 13.4443 14.3386 15.279
213 2 14.5376 15.2076 4.93591
214 2 0.228484 14.9795 4.13145
215 2 9.24837 13.4527 11.622
216 2 9.52013 12.2417 12.5392
217 2 12.875 7.30125 7.44426
218 2 13.1287 6.09272 6.70831
219 2 8.70364 11.2231 8.31889
220 2 9.67729 10.2938 7.51515
221 2 10.4955 10.2933 12.7118
222 2 10.0325 10.7711 14.1408
223 2 9.87115 13.0955 5.5737
224 2 8.95145 12.0108 4.93614
225 2 4.74251 0.928236 14.2575
226 2 3.48888 1.81195 13.8977
227 2 7.56401 13.1017 13.1985
228 2 6.02622 12.6782 13.2435
229 2 3.65548 5.64787 8.88705
230 2 4.53028 5.65688 10.1121
231 2 10.7483 -0.0654962 13.7661
232 2 11.7812 0.808853 13.0779
233 2 8.36482 -0.291862 3.46612
234 2 8.34757 14.0066 4.25098
235 2 5.1094 1.81781 2.95108
236 2 4.6411 2.96006 4.03817
237 2 12.5339 11.0417 9.22128
238 2 11.1841 11.2095 8.49369
239 2 8.60742 10.312 0.576946
240 2 8.69537 11.7883 0.0583599
241 2 1.42282 1.68337 7.50469
242 2 1.60998 2.65673 8.73322
243 2 8.87953 5.11923 12.1645
244 2 8.03029 6.40716 12.1505
245 2 1.95332 8.95172 9.16853
246 2 1.28006 10.1574 8.3047
247 2 11.2632 11.2403 2.79611
248 2 10.7957 9.70539 2.72449
249 2 11.5653 5.40273 -0.288322
250 2 11.1896 4.32648 14.2564
251 2 10.4204 6.65681 9.62663
252 2 10.2607 6.46258 11.0571
253 2 5.87632 10.1769 10.5904
254 2 4.94364 10.8143 9.46912
255 2 7.91802 7.6928 0.604333
256 2 7.17835 8.74025 1.63464
257 2 14.2008 7.92642 9.35992
258 2 -0.267797 8.44072 8.55252
259 2 6.16366 14.3915 3.8125
260 2 4.75946 14.0077 3.26281
261 2 6.35085 1.60272 6.90857
262 2 4.84301 1.75402 6.76165
263 2 1.34137 0.662419 9.62968
264 2 0.817817 14.7755 10.0578
265 2 10.8342 13.0339 1.10914
266 2 12.2496 13.5788 1.43103
267 2 7.99168 4.93257 10.0429
268 2 8.59208 4.87508 8.55834
269 2 -0.0863874 13.5026 5.64494
270 2 0.00602987 12.1735 6.56287
271 2 6.0476 11.6847 7.84187
272 2 4.65027 12.2574 7.8746
273 2 -0.10786 7.21382 14.4417
274 2 1.40859 7.20909 13.8607
275 2 1.10879 5.19843 12.1297
276 2 0.142322 4.18446 11.4107
277 2 0.192301 0.569522 11.8253
278 2 0.262058 0.216297 13.3227
279 2 13.325 12.966 5.76917
280 2 12.474 12.1815 6.79075
281 2 6.96454 1.33987 0.72514
282 2 6.22808 -0.0168944 1.14781
283 2 5.28424 6.95392 7.95734
284 2 5.69738 8.44349 7.79401
285 2 4.59695 2.96295 -0.156096
286 2 4.05776 3.8329 1.0606
287 2 14.2623 2.20361 0.861912
288 2 14.7961 2.02476 15.1013
289 2 7.90736 0.984376 2.41964
290 2 8.42535 2.08554 3.23522
291 2 9.33834 3.30929 9.83257
292 2 10.1754 1.88055 10.1119
293 2 1.75381 4.52695 9.90946
294 2 1.11552 4.78978 8.54253
295 2 12.2645 0.0873025 4.07993
296 2 12.0334 14.6435 5.15054
297 2 9.97133 5.30379 5.02216
298 2 9.51596 4.30903 3.95105
299 2 9.11176 6.41377 14.7882
300 2 7.57568 6.54 14.599
301 2 2.07189 2.92609 11.9449
302 2 2.69894 1.52435 11.845
303 2 10.8501 14.3815 10.4642
304 2 10.5118 -0.206863 11.478
305 2 0.274248 12.7719 0.61942
306 2 0.108425 11.2293 1.22179
307 2 9.70727 2.84376 13.3266
308 2 10.3129 3.49932 12.1129
309 2 7.16744 3.93944 3.6373
310 2 7.68964 3.77425 2.12389
311 2 2.7812 12.2345 3.34142
312 2 4.17512 12.108 2.65722
313 2 13.4252 2.63657 7.76521
314 2 14.4885 3.85196 7.85505
315 2 1.16553 7.50623 0.684607
316 2 1.80702 6.9489 2.01705
317 2 14.4305 9.58843 13.243
318 2 13.0187 10.0336 13.4694
319 2 5.70123 2.57075 8.68482
320 2 6.80813 3.05178 9.52933
321 2 5.35787 4.80808 5.12533
322 2 5.96938 3.53575 5.71789
323 2 13.0854 2.74416 13.3668
324 2 13.871 1.59988 12.7008
325 2 8.54415 7.16809 5.28465
326 2 9.76316 8.11779 5.62097
327 2 3.5805 7.58031 10.0651
328 2 3.76188 9.05652 10.3377
329 2 4.55808 11.8882 11.3243
330 2 3.56374 12.075 12.5347
331 2 0.334551 11.7965 12.6005
332 2 0.24849 12.8839 13.5924
333 2 6.35726 8.22802 5.65351
334 2 6.38531 8.12785 4.02112
335 2 10.214 9.5859 10.0692
336 2 10.6644 8.57403 11.1276
337 2 8.95214 14.8857 9.64428
338 2 7.3584 14.7538 9.70982
339 2 0.591563 15.0693 0.0182509
340 2 1.70203 14.3696 14.7724
341 2 6.4741 3.89198 0.306924
342 2 7.8908 4.74294 0.474307
343 2 13.7745 5.25403 11.174
344 2 12.6407 6.3597 11.1641
345 2 6.61181 10.3071 13.1711
346 2 7.38294 10.2018 14.4287
347 2 5.92965 6.53312 13.3142
348 2 6.65131 8.00804 13.4902
349 2 4.1508 10.9057 6.58172
350 2 3.72612 9.43762 6.27968
351 2 0.960879 1.05271 5.33877
352 2 1.48012 2.49213 5.40543
353 2 8.71011 13.4532 1.93204
354 2 8.99593 13.78 0.520382
355 2 3.28533 0.709593 5.89467
356 2 4.52263 -0.105961 5.1872
357 2 10.8957 8.12501 1.5533
358 2 9.392 8.09909 2.00114
359 2 2.85608 14.8006 10.6062
360 2 3.90293 13.7417 11.0449
361 2 6.48734 12.6937 1.54518
362 2 7.04029 11.6822 2.67807
363 2 2.24681 10.7375 14.3261
364 2 3.668 10.6767 14.8241
365 2 12.3482 3.69431 0.972113
366 2 13.2921 3.83378 2.19605
367 2 12.5073 12.8061 9.60602
368 2 12.5354 13.311 11.1419
369 2 13.9506 6.55755 12.8999
370 2 13.4462 7.1125 14.3857
371 2 11.8334 1.45816 2.05064
372 2 10.4376 0.894116 2.52875
373 2 0.844146 1.54638 0.605455
374 2 2.39804 1.38307 0.478242
375 2 7.77884 0.12269 7.66547
376 2 8.60235 1.23456 6.91956
377 2 12.4122 11.5105 0.551261
378 2 13.9301 11.2794 0.187093
379 2 13.8259 3.47873 9.96028
380 2 13.5184 3.1733 11.5056
381 2 12.9666 3.11167 5.2382
382 2 12.0906 4.05916 4.29522
383 2 5.48443 10.7696 1.07083
384 2 5.47524 10.05 -0.286949
ITEM: TIMESTEP
200
ITEM: NUMBER OF ATOMS
384
ITEM: BOX BOUNDS pp pp pp
-2.1868351273538700e-01 1.5218683512735430e+01
-2.1868351273538700e-01 1.5218683512735430e+01
-2.1868351273538700e-01 1.5218683512735430e+01
ITEM: ATOMS id type x y z
1 1 4.46639 5.54246 13.1495
2 1 14.4626 3.89301 13.8525
3 1 7.60023 10.7095 3.81861
4 1 1.69966 3.78001 4.57713
5 1 13.6819 10.1715 10.329
6 1 9.96413 0.200053 -0.0522126
7 1 13.2759 9.65458 6.07511
8 1 3.34586 13.5118 7.56589
9 1 3.16572 6.56644 2.85529
10 1 5.47067 7.89417 2.63009
11 1 13.752 6.57094 1.88299
12 1 0.618218 10.0306 13.7696
13 1 14.9327 5.42133 4.90482
14 1 9.85747 5.93607 7.87007
15 1 12.1898 6.96644 4.03668
16 1 9.91634 2.74165 6.758
17 1 4.70668 3.90811 11.2636
18 1 7.34999 10.3583 11.2393
19 1 8.40104 1.92924 14.3716
20 1 5.83655 13.9137 0.561097
21 1 -0.082293 13.3156 10.0291
22 1 12.5372 1.87696 6.22598
23 1 10.6728 7.10165 14.1854
24 1 1.97781 7.81581 6.3106
25 1 10.4565 9.16769 5.81148
26 1 15.1054 8.13887 4.71068
27 1 1.78343 11.4976 4.40276
28 1 5.93572 0.285842 10.5887
29 1 12.2118 8.04421 0.289619
30 1 2.24826 6.47322 12.3104
31 1 3.55552 5.72447 5.37757
32 1 7.72399 11.9423 7.85223
33 1 3.19661 3.57809 2.17941
34 1 3.05105 13.2201 0.17035
35 1 -0.0917643 5.35366 7.61635
36 1 10.644 14.5593 7.35397
37 1 1.17062 14.4973 2.24151
38 1 6.03387 0.4398 13.3551
39 1 0.490619 9.88671 2.85249
40 1 12.2074 13.0339 12.5978
41 1 0.922729 12.2762 8.01919
42 1 13.4824 14.3321 0.193053
43 1 -0.0385146 14.9843 4.53006
44 1 8.50801 12.7806 11.7542
45 1 12.4617 6.35943 6.77714
46 1 9.67649 10.3146 8.19112
47 1 10.3874 10.9735 12.849
48 1 8.79138 12.4459 5.37901
49 1 3.90747 1.67361 14.2019
50 1 6.41601 13.236 13.4473
51 1 4.10785 5.93706 9.32111
52 1 11.1834 -0.0399903 13.0511
53 1 7.58315 14.2187 3.52375
54 1 4.70066 2.05132 3.49842
55 1 12.2154 11.2862 8.36041
56 1 8.83514 10.4524 -0.157648
57 1 1.69207 1.75646 8.29521
58 1 8.41927 5.57894 11.5584
59 1 1.16533 9.09879 8.48202
60 1 10.4238 10.4392 3.38416
61 1 11.6201 4.34233 14.8277
62 1 10.4904 6.89776 10.4473
63 1 4.9045 10.236 10.0861
64 1 7.95676 8.05152 1.31086
65 1 14.3249 7.557 8.63697
66 1 4.87955 14.7686 3.70924
67 1 5.77847 1.92569 6.81625
68 1 1.33859 0.397194 10.3718
69 1 11.5402 12.4732 1.63048
70 1 8.32211 4.23387 9.29832
71 1 15.2182 12.6144 5.66735
72 1 4.92548 11.3279 7.59649
73 1 0.895935 7.48748 14.2959
74 1 1.08066 4.21878 11.808
75 1 -0.0532549 0.583817 12.7516
76 1 12.4049 12.5164 5.99482
77 1 6.22805 1.01898 1.44122
78 1 5.57492 8.00813 6.99464
79 1 4.64781 4.0603 -0.181482
80 1 14.5721 1.73045 0.315759
81 1 8.48388 1.28865 2.65438
82 1 10.1457 2.6169 10.2492
83 1 1.88882 4.34523 8.87403
84 1 12.6522 15.0284 4.27437
85 1 10.2265 4.81194 4.89205
86 1 8.30377 6.29493 14.9172
87 1 2.75594 2.22254 11.9908
88 1 9.98827 14.7955 10.8037
89 1 15.213 11.2178 0.721973
90 1 9.68286 3.6166 12.7835
91 1 7.96875 3.85437 3.53829
92 1 3.34223 12.6966 2.73431
93 1 13.5168 3.52665 8.17374
94 1 0.755213 7.57688 1.71832
95 1 13.3453 9.98246 12.7893
96 1 6.14069 2.74708 9.25741
97 1 5.85476 3.82514 5.12308
98 1 13.0129 1.8494 12.6939
99 1 9.00233 7.03157 5.43947
100 1 3.07061 8.17281 10.2552
101 1 4.3657 12.2383 12.0372
102 1 0.56923 12.6976 12.4222
103 1 6.8185 8.5127 4.72164
104 1 9.75777 9.53601 10.7827
105 1 7.82896 14.4993 9.02349
106 1 0.806633 14.391 14.6014
107 1 7.41711 3.9213 0.373126
108 1 13.3847 6.61414 10.843
109 1 6.67047 9.59159 13.6727
110 1 6.7255 6.90074 13.0814
111 1 3.56771 9.83604 5.57454
112 1 1.48937 1.13182 5.71067
113 1 9.09712 13.2887 1.05155
114 1 3.9519 0.177824 6.13881
115 1 10.4471 8.0373 2.28553
116 1 3.76668 14.2601 10.3338
117 1 5.71085 11.5612 2.19855
118 1 3.17213 11.048 14.1492
119 1 12.3557 2.95015 1.55894
120 1 12.4807 13.6337 10.0139
121 1 13.8774 6.55388 13.6494
122 1 11.1445 0.919919 2.48642
123 1 1.73257 1.38461 1.09334
124 1 8.0321 0.654249 6.65127
125 1 12.665 10.6251 -0.152614
126 1 13.9631 3.84169 10.7726
127 1 12.6034 4.15514 4.09598
128 1 4.97024 9.73209 0.444929
129 2 4.8291 4.92332 12.2046
130 2 4.57 5.09874 14.0798
131 2 14.2267 4.83353 13.7832
132 2 -0.127138 3.71679 13.1388
133 2 7.08633 9.75235 4.15333
134 2 8.46347 10.3935 3.5565
135 2 0.82211 4.17832 4.41005
136 2 2.06459 3.73229 3.7288
137 2 14.4424 10.6852 10.2179
138 2 13.6143 10.1022 11.3043
139 2 10.4071 0.591501 0.737451
140 2 9.33154 0.888929 14.9918
141 2 13.4676 9.53956 6.92276
142 2 13.2129 10.636 5.99733
143 2 3.50674 13.9665 8.54964
144 2 3.65792 14.3053 7.08754
145 2 3.24392 5.87147 2.12583
146 2 3.19736 6.21328 3.71969
147 2 5.29554 8.6458 1.93019
148 2 4.79511 7.31952 2.6202
149 2 13.189 6.72802 2.72333
150 2 14.5534 7.18914 1.86101
151 2 0.981075 9.18158 13.737
152 2 0.560529 10.442 14.8023
153 2 14.3036 4.97512 4.30422
154 2 15.0105 6.34971 4.78684
155 2 10.8376 6.17289 7.45067
156 2 9.08945 6.19561 7.21597
157 2 12.4956 6.97391 5.06876
158 2 11.4384 7.67472 3.65415
159 2 9.7792 2.97378 7.62401
160 2 10.0453 3.62935 6.44998
161 2 3.97647 3.18817 11.606
162 2 5.26289 3.56332 10.66
163 2 8.21969 9.87834 11.109
164 2 7.61814 11.3847 11.3206
165 2 8.1164 2.73773 14.921
166 2 7.62914 1.91153 13.7929
167 2 6.41324 13.3039 -0.189596
168 2 4.95092 13.6344 0.383384
169 2 14.4613 13.4203 9.91021
170 2 0.16435 13.0236 11.1826
171 2 11.4943 1.97209 6.22225
172 2 12.681 1.11742 5.55435
173 2 10.6531 7.58232 13.4313
174 2 11.2864 7.53525 14.9574
175 2 0.984819 7.96191 5.69132
176 2 1.56494 8.24093 7.13725
177 2 11.3841 9.1693 5.80538
178 2 10.3635 9.92559 5.00135
179 2 14.2929 8.63512 5.15929
180 2 0.021863 8.66312 4.01519
181 2 1.01687 11.7967 4.98725
182 2 2.53673 11.0103 4.77689
183 2 6.05821 1.08218 9.92289
184 2 5.06185 -0.173686 10.5427
185 2 12.7839 8.88175 -0.00989498
186 2 12.9954 7.46573 0.707987
187 2 2.40094 7.21989 11.5425
188 2 3.16523 6.39667 12.5908
189 2 2.92606 6.46761 5.72618
190 2 2.88884 4.98284 5.09292
191 2 7.78131 12.8624 8.27599
192 2 8.14301 12.1306 7.06079
193 2 2.45548 2.96156 1.80861
194 2 3.76631 3.24283 2.72496
195 2 3.08324 12.4577 15.1524
196 2 3.01261 13.1824 1.10089
197 2 15.1503 5.2677 6.58303
198 2 14.939 6.20595 7.91788
199 2 11.2797 -0.154166 7.31818
200 2 11.1118 13.7568 6.96376
201 2 2.0186 14.2158 2.49674
202 2 1.3937 0.0257009 1.9973
203 2 6.08278 14.8777 13.4431
204 2 5.84735 0.42696 12.4406
205 2 1.0743 9.23975 2.27251
206 2 1.03746 10.4705 3.4591
207 2 11.5891 13.8671 12.6883
208 2 11.5642 12.3425 12.7314
209 2 1.82047 12.9414 7.94542
210 2 0.573464 12.7356 8.70786
211 2 13.493 15.1644 0.26244
212 2 13.316 13.9916 14.676
213 2 14.3723 15.0933 4.28536
214 2 0.597404 14.8219 3.71778
215 2 8.99981 13.5206 11.2785
216 2 9.28812 12.3098 12.2351
217 2 13.0022 6.90762 7.50294
218 2 12.8224 5.48729 6.83875
219 2 8.68787 10.7095 8.18612
220 2 9.81216 9.70783 7.21796
221 2 10.273 10.5167 11.9852
222 2 9.8946 10.6496 13.7175
223 2 9.82485 12.3432 5.3582
224 2 8.43817 11.7714 4.85974
225 2 4.62573 1.18451 13.926
226 2 3.41654 1.8153 13.3567
227 2 7.27954 12.9272 13.023
228 2 5.62062 12.8497 13.1115
229 2 3.25364 5.33186 9.10572
230 2 4.49813 5.48938 10.0125
231 2 10.9417 0.118916 13.9957
232 2 12.0533 0.642198 12.9924
233 2 7.93071 15.0909 3.40636
234 2 8.05218 13.5337 4.21654
235 2 5.2662 1.43111 3.02487
236 2 5.31829 2.68795 4.13209
237 2 12.5163 10.9354 9.12592
238 2 11.5309 10.5625 8.35258
239 2 8.69013 9.74492 0.654901
240 2 8.85023 11.2196 0.274123
241 2 1.44017 1.46637 7.21616
242 2 1.76511 2.746 8.47732
243 2 8.96273 4.99458 11.9445
244 2 8.06997 6.01719 12.208
245 2 1.87933 8.90056 9.27313
246 2 0.997742 10.1577 8.51332
247 2 10.8836 11.0209 2.82729
248 2 10.4582 9.66284 2.8715
249 2 11.1013 5.21373 15.0513
250 2 11.1131 3.96036 14.1362
251 2 10.523 6.42501 9.57723
252 2 9.75815 6.37536 11.1499
253 2 5.85876 10.2258 10.4322
254 2 4.90239 10.6969 9.25555
255 2 7.84987 7.3222 0.733418
256 2 7.17476 7.98631 1.87347
257 2 14.0186 7.21823 9.60374
258 2 14.7668 8.4601 8.81478
259 2 5.89464 14.4998 3.91239
260 2 4.62189 13.8268 3.46603
261 2 6.67432 1.55065 6.75361
262 2 5.14829 1.23525 6.8244
263 2 1.14501 0.889705 9.59901
264 2 0.867928 14.9392 10.3023
265 2 10.6609 12.9235 1.40387
266 2 12.4122 12.9658 1.76824
267 2 8.07321 4.67955 10.1359
268 2 8.77909 4.7719 8.51013
269 2 -0.0676196 13.4251 5.1341
270 2 0.0837185 12.5934 6.66728
271 2 5.74715 11.4915 7.55317
272 2 4.26204 12.1829 7.79734
273 2 0.145283 7.02796 14.4534
274 2 1.37199 7.0491 13.5877
275 2 1.4268 5.33307 11.9675
276 2 0.108089 4.32007 11.2339
277 2 0.501761 0.669369 11.865
278 2 0.711705 0.490435 13.3618
279 2 13.2834 12.6019 5.90992
280 2 12.3605 12.1001 7.10137
281 2 6.36828 1.32142 0.49276
282 2 5.9276 0.0218663 1.18162
283 2 5.04308 7.32175 7.35418
284 2 5.09974 8.76016 7.22264
285 2 4.45551 3.12426 14.724
286 2 4.26621 3.88629 0.569974
287 2 13.9114 2.24214 0.869464
288 2 14.6009 2.34528 15.0178
289 2 7.73687 1.07926 2.23467
290 2 8.31785 2.15562 3.1344
291 2 9.46981 3.11721 9.66173
292 2 10.3159 1.63345 10.0185
293 2 1.60488 4.22517 9.85313
294 2 1.16035 4.92418 8.50208
295 2 11.9672 0.111915 3.69657
296 2 12.3541 14.1185 4.54076
297 2 10.0266 5.75472 4.84188
298 2 9.41608 4.44665 4.23735
299 2 9.13128 6.91925 14.4641
300 2 7.58305 6.29217 14.3078
301 2 2.13404 3.05933 12.0702
302 2 2.46046 1.67015 11.3634
303 2 10.8694 14.6074 10.3115
304 2 10.249 -0.0970864 11.5237
305 2 15.1416 12.2974 0.741804
306 2 0.0473865 10.8293 1.64205
307 2 9.26725 2.73669 13.2923
308 2 10.3829 3.35715 12.103
309 2 7.17304 4.00739 4.20162
310 2 7.81093 4.40328 2.71988
311 2 2.86135 12.3222 3.39981
312 2 4.17017 12.0462 2.8004
313 2 13.3933 2.77891 7.54022
314 2 14.3229 3.96442 7.88353
315 2 0.808619 7.26247 0.750739
316 2 1.52799 7.14036 2.14238
317 2 14.2249 10.1108 13.0745
318 2 12.8929 10.4739 13.5304
319 2 5.95495 2.66724 8.33734
320 2 6.9882 3.12202 9.26266
321 2 5.26941 4.59096 5.23558
322 2 5.57355 3.10879 5.84504
323 2 13.2646 2.58002 13.4374
324 2 13.9705 1.38251 12.6885
325 2 8.12746 7.27016 5.01064
326 2 9.34224 7.97083 5.74715
327 2 3.53449 7.3507 9.93413
328 2 3.78483 8.84228 10.4222
329 2 4.63509 11.5701 11.2996
330 2 3.95447 11.7586 12.8429
331 2 0.249344 11.7578 12.7374
332 2 0.550206 13.3219 13.066
333 2 6.19645 8.46837 5.6289
334 2 6.23986 8.10508 4.0183
335 2 9.66345 9.9914 9.97229
336 2 10.092 8.57491 10.6271
337 2 8.70217 14.76 9.32389
338 2 7.22208 14.7803 9.77496
339 2 0.00176946 14.4464 -0.168695
340 2 1.58556 14.0479 15.0209
341 2 6.55722 4.22968 0.416607
342 2 7.79715 4.74175 0.203541
343 2 13.2683 5.6416 10.6412
344 2 12.4844 6.7933 10.7722
345 2 6.75252 10.0496 12.7186
346 2 7.57839 9.67377 14.0201
347 2 5.91646 6.3185 13.0962
348 2 6.64176 7.79366 13.4374
349 2 3.82352 10.387 6.26817
350 2 3.10619 8.85992 5.89859
351 2 0.9475 0.504351 5.32174
352 2 1.53833 1.9544 5.16249
353 2 8.70471 13.3487 1.81963
354 2 9.61559 14.2876 0.689454
355 2 3.12958 0.576699 5.90559
356 2 4.13295 15.2017 5.24309
357 2 10.928 7.86468 1.44777
358 2 9.53343 7.84495 2.00919
359 2 2.86048 14.7263 10.2411
360 2 3.61804 13.5795 11.1205
361 2 6.02916 12.6049 1.94627
362 2 6.40023 11.238 3.18463
363 2 2.37585 10.6854 14.0835
364 2 3.80972 10.592 14.7628
365 2 11.8819 3.52175 0.8266
366 2 12.4273 3.61865 2.2627
367 2 12.3374 12.882 9.28121
368 2 12.5803 13.2373 11.0803
369 2 13.94 6.70319 12.7278
370 2 13.1293 6.67863 14.1266
371 2 11.6724 1.65725 2.12212
372 2 10.1727 1.14901 2.68331
373 2 0.839251 1.73243 0.654111
374 2 2.13194 1.21881 0.251305
375 2 8.15729 -0.0789806 7.41353
376 2 8.78446 1.19166 6.75434
377 2 12.147 11.2363 0.471216
378 2 13.4723 10.8567 0.215978
379 2 14.0728 3.80184 9.83719
380 2 13.6934 3.02506 11.1368
381 2 12.5622 3.35484 4.73104
382 2 11.7972 4.66723 4.54177
383 2 5.17396 10.6217 0.861881
384 2 5.55106 9.4782 15.1743
ITEM: TIMESTEP
400
ITEM: NUMBER OF ATOMS
384
ITEM: BOX BOUNDS pp pp pp
-1.3021218416963443e-01 1.5130212184169675e+01
-1.3021218416963443e-01 1.5130212184169675e+01
-1.3021218416963443e-01 1.5130212184169675e+01
ITEM: ATOMS id type x y z
1 1 4.52597 5.39237 12.5896
2 1 14.5795 3.92557 14.095
3 1 7.24096 10.8276 3.41772
4 1 1.74224 3.47482 4.40044
5 1 13.5807 9.63618 9.89522
6 1 9.46048 -0.0192414 15.0866
7 1 13.3546 9.72142 6.37292
8 1 3.4812 13.018 7.96078
9 1 3.40766 6.09541 2.50802
10 1 5.60378 7.51862 2.12322
11 1 13.8293 6.70519 1.98113
12 1 0.689025 10.0771 13.9618
13 1 -0.126569 5.27092 4.85809
14 1 9.63811 6.42683 8.10437
15 1 12.2527 6.76291 4.48083
16 1 10.2224 2.60679 6.72258
17 1 4.61621 3.82715 10.6132
18 1 6.87116 10.512 11.1384
19 1 7.98334 2.04186 14.4285
20 1 5.80425 13.618 0.52818
21 1 15.1223 13.3839 10.0284
22 1 12.2602 1.90724 5.65211
23 1 10.7536 6.4231 13.4642
24 1 2.02948 7.96875 6.44598
25 1 10.6751 9.07066 5.73388
26 1 15.0164 7.88501 4.78108
27 1 1.64548 11.2489 4.45454
28 1 5.97156 0.559948 10.4583
29 1 12.2702 7.87027 0.0248717
30 1 2.05352 6.43675 12.0785
31 1 3.32517 5.70097 5.25466
32 1 7.52623 11.9844 7.78564
33 1 3.20275 3.42438 1.90049
34 1 3.24931 12.9583 0.0186529
35 1 -0.0152132 4.96006 7.44235
36 1 10.5224 14.6741 7.32607
37 1 1.03536 14.2174 1.77732
38 1 5.92762 0.898859 13.0825
39 1 0.414585 9.75597 2.79645
40 1 12.2657 12.9932 12.4221
41 1 1.12984 11.9824 8.17096
42 1 13.4812 13.8816 15.0892
43 1 -0.108883 14.8739 4.1302
44 1 8.36586 12.8062 11.8866
45 1 12.0637 5.98463 7.12666
46 1 9.74076 10.3486 7.92555
47 1 10.0831 10.9514 12.8265
48 1 8.52643 12.3098 5.38169
49 1 3.7345 1.71257 13.9498
50 1 6.11005 13.4052 13.2037
51 1 4.11597 6.15786 8.73377
52 1 11.1499 0.0976477 12.8793
53 1 7.38056 13.9846 3.58574
54 1 4.55441 2.12972 3.70783
55 1 12.1635 11.2573 8.55108
56 1 8.86632 10.1778 -0.014022
57 1 2.0721 1.44321 8.25913
58 1 8.54333 5.25637 11.6477
59 1 0.674532 9.42159 8.7714
60 1 10.1444 10.5731 3.63759
61 1 11.5979 3.89607 14.3825
62 1 10.1069 7.0564 10.5278
63 1 4.66843 10.1103 9.70692
64 1 8.17985 8.11007 1.49778
65 1 14.0206 7.28289 8.06078
66 1 4.89418 14.7376 3.76181
67 1 5.76243 1.73374 6.4577
68 1 1.4439 0.167963 10.3368
69 1 11.1865 12.6084 1.93816
70 1 8.80143 3.92888 9.24041
71 1 15.0493 12.6015 5.6241
72 1 4.97341 11.0876 7.2354
73 1 0.775032 7.579 14.1758
74 1 0.558256 4.18659 11.5994
75 1 15.0814 0.72352 12.6304
76 1 12.3508 12.7377 6.00679
77 1 6.32504 1.01296 1.15182
78 1 5.56554 8.04706 7.47016
79 1 4.75713 4.02717 15.0474
80 1 14.5981 1.70125 0.586542
81 1 8.15352 1.22729 2.99812
82 1 10.3149 1.98136 10.5325
83 1 2.03093 4.20261 8.87758
84 1 12.3641 14.9053 4.37606
85 1 9.77338 4.54505 4.94935
86 1 8.2827 6.10976 14.8375
87 1 2.63407 2.22036 11.5564
88 1 10.1973 14.5442 10.6518
89 1 14.7499 11.3362 1.03194
90 1 9.62206 3.18639 12.6721
91 1 7.60456 3.78982 3.49555
92 1 3.11159 12.7018 2.80614
93 1 13.1695 3.65116 7.93088
94 1 1.25422 7.66871 1.65045
95 1 13.2451 9.81333 12.6114
96 1 6.44865 2.85807 8.88577
97 1 6.07688 4.4624 5.56529
98 1 12.8212 2.14786 12.47
99 1 8.74452 7.25229 5.77213
100 1 2.81051 8.1215 9.9644
101 1 4.24988 12.1075 11.7521
102 1 1.01665 12.2209 12.1622
103 1 6.52796 8.38429 4.60919
104 1 9.23183 9.51095 10.5928
105 1 7.56671 14.4417 8.7103
106 1 0.952865 13.9955 14.0166
107 1 7.09434 3.93665 1.01684
108 1 12.5229 6.52604 11.0135
109 1 6.99978 9.46349 13.6345
110 1 6.78107 6.95334 12.7549
111 1 3.83409 9.7043 5.11292
112 1 1.39368 1.07307 5.68867
113 1 8.77598 12.9614 1.21843
114 1 3.65874 15.0068 6.32443
115 1 10.7082 8.21098 2.5747
116 1 3.82561 14.2284 10.1258
117 1 5.1634 11.3256 1.80062
118 1 3.20706 10.8318 14.0159
119 1 12.1789 2.94893 1.71191
120 1 12.3974 13.4751 9.7805
121 1 13.7744 6.65418 13.3636
122 1 10.844 0.718099 2.44523
123 1 1.82194 1.56638 0.909048
124 1 8.19842 0.670422 6.03271
125 1 12.2962 10.4527 0.140704
126 1 13.3042 4.03279 10.6022
127 1 12.9605 3.98062 4.30824
128 1 4.71415 9.43411 0.143921
129 2 4.7236 4.63846 11.9433
130 2 4.49522 4.7506 13.5492
131 2 14.0336 4.61094 14.1211
132 2 0.166959 4.0034 13.3499
133 2 7.03911 9.97871 3.87674
134 2 8.32233 10.7466 3.09193
135 2 1.01048 4.29355 4.38127
136 2 2.17377 3.5057 3.62251
137 2 14.4984 9.33455 9.61937
138 2 13.2712 9.40482 10.919
139 2 9.72143 0.287028 0.614973
140 2 8.78664 0.695799 14.8669
141 2 13.3078 10.0428 7.28022
142 2 13.3665 10.6384 5.89523
143 2 3.63251 13.6647 8.75633
144 2 3.44129 13.6916 7.19434
145 2 3.29855 5.22295 2.34869
146 2 3.19351 6.06109 3.51521
147 2 5.21266 8.27866 1.64261
148 2 4.88023 6.97304 2.23383
149 2 13.6215 6.61387 2.84153
150 2 14.7236 6.91944 2.06946
151 2 0.841141 8.93512 14.0441
152 2 0.176678 10.4172 14.6981
153 2 14.1545 4.71186 4.50823
154 2 15.0111 6.23295 4.65591
155 2 10.3672 6.12425 7.61307
156 2 9.04103 6.94598 7.43057
157 2 12.2576 6.78677 5.46425
158 2 11.5633 7.28188 4.17606
159 2 9.83844 2.90675 7.68164
160 2 10.2072 3.43997 6.12621
161 2 3.93182 3.13266 10.9158
162 2 5.20859 3.55845 9.86028
163 2 7.79768 9.79993 10.9649
164 2 7.34069 11.5429 11.1874
165 2 7.69657 2.73208 15.0129
166 2 7.09167 1.61775 14.1329
167 2 6.07583 13.4748 14.7402
168 2 4.83562 13.3846 0.401686
169 2 14.102 13.3593 9.737
170 2 0.0292527 13.0998 10.9327
171 2 11.5991 1.85624 6.30793
172 2 12.5763 1.13689 5.24191
173 2 11.1969 6.26497 12.5973
174 2 11.471 6.83046 14.0534
175 2 1.20478 8.10584 5.88999
176 2 1.68564 8.482 7.25538
177 2 11.7295 9.24598 5.96961
178 2 10.5671 9.60632 4.86194
179 2 14.2827 8.34255 5.14526
180 2 0.00279473 8.60498 4.00697
181 2 1.25117 11.862 5.09799
182 2 2.25884 10.5255 5.06777
183 2 6.20807 1.27884 9.8099
184 2 5.27302 -0.0678993 10.2304
185 2 12.3779 8.99994 0.014351
186 2 12.754 7.398 0.623607
187 2 2.40341 7.0438 11.443
188 2 2.95813 5.80393 12.1547
189 2 2.95803 6.34946 5.74518
190 2 2.68033 5.00448 5.06213
191 2 7.31074 12.8877 8.32585
192 2 7.9614 12.2765 6.82202
193 2 2.41933 2.65318 1.59351
194 2 3.80998 2.71298 2.21377
195 2 3.23285 11.9212 14.9041
196 2 3.31779 12.7662 0.958646
197 2 0.0838238 5.0676 6.36535
198 2 14.8899 5.80588 7.86496
199 2 10.8971 14.9549 8.0683
200 2 11.5 14.3764 6.82498
201 2 1.73231 13.777 2.16269
202 2 1.41382 -0.0385534 1.56693
203 2 6.09453 0.0293707 13.2817
204 2 6.01572 0.909547 11.9938
205 2 1.09934 9.12971 2.44988
206 2 1.02318 10.3704 3.3929
207 2 11.7263 13.7437 12.8626
208 2 11.6302 12.1572 12.6453
209 2 2.06738 12.1036 8.04612
210 2 0.724474 12.4647 8.88182
211 2 13.5806 14.8802 14.7857
212 2 13.2553 13.48 14.3654
213 2 14.3636 15.0466 4.0213
214 2 0.292723 14.6972 3.25206
215 2 8.9342 13.4026 11.4056
216 2 8.999 12.0732 12.2781
217 2 12.5733 6.63441 7.76709