ITEM: TIMESTEP
0
ITEM: NUMBER OF ATOMS
384
ITEM: BOX BOUNDS pp pp pp
0.0000000000000000e+00 1.5645677530000000e+01
0.0000000000000000e+00 1.4707145290000000e+01
0.0000000000000000e+00 1.8073037029999998e+01
ITEM: ATOMS id type x y z
1 1 1.38 1.76 3.37
2 1 5.2 4.47 1.11
3 1 6.59 5.39 3.31
4 1 5.28 4.49 5.56
5 1 2.59 0.84 5.67
6 1 2.69 5.43 5.56
7 1 5.2 1.71 1.07
8 1 5.2 1.73 5.58
9 1 1.32 4.61 7.82
10 1 1.3 4.52 3.36
11 1 2.61 5.41 1.1
12 1 2.59 0.82 1.07
13 1 6.54 0.87 3.33
14 1 6.54 0.88 7.83
15 1 6.51 5.4 7.86
16 1 1.35 1.85 7.92
17 1 9.2 1.76 3.37
18 1 13.05 4.55 1.15
19 1 14.35 5.46 3.4
20 1 13.1 4.49 5.66
21 1 10.41 0.84 5.67
22 1 10.51 5.43 5.65
23 1 13.07 1.79 1.07
24 1 13.02 1.73 5.58
25 1 9.15 4.61 7.91
26 1 9.2 4.52 3.4
27 1 10.45 5.49 1.15
28 1 10.49 0.82 1.12
29 1 14.36 0.87 3.33
30 1 14.36 0.88 7.83
31 1 14.36 5.48 7.9
32 1 9.17 1.85 7.92
33 1 1.3 9.11 3.32
34 1 5.3 11.9 1.11
35 1 6.53 12.81 3.4
36 1 5.2 11.84 5.61
37 1 2.59 8.19 5.58
38 1 2.61 12.79 5.61
39 1 5.25 9.14 1.16
40 1 5.2 9.08 5.67
41 1 1.32 11.96 7.91
42 1 1.38 11.87 3.31
43 1 2.69 12.77 1.06
44 1 2.67 8.17 1.12
45 1 6.49 8.14 3.42
46 1 6.49 8.16 7.92
47 1 6.53 12.83 7.81
48 1 1.35 9.21 7.83
49 1 9.09 9.19 3.37
50 1 13.13 11.9 1.11
51 1 14.44 12.82 3.35
52 1 13.1 11.84 5.56
53 1 10.41 8.19 5.58
54 1 10.51 12.79 5.65
55 1 12.99 9.14 1.12
56 1 13.02 9.08 5.67
57 1 9.12 11.89 7.86
58 1 9.15 11.95 3.4
59 1 10.51 12.77 1.15
60 1 10.38 8.25 1.12
61 1 14.29 8.22 3.37
62 1 14.36 8.24 7.92
63 1 14.36 12.83 7.81
64 1 9.12 9.13 7.83
65 1 1.35 1.83 12.45
66 1 5.2 4.47 10.14
67 1 6.59 5.39 12.34
68 1 5.3 4.56 14.65
69 1 2.67 0.84 14.66
70 1 2.69 5.43 14.6
71 1 5.28 1.71 10.15
72 1 5.25 1.81 14.61
73 1 1.32 4.61 16.85
74 1 1.32 4.59 12.35
75 1 2.63 5.49 10.09
76 1 2.64 0.89 10.2
77 1 6.57 0.79 12.41
78 1 6.54 0.88 16.87
79 1 6.53 5.48 16.94
80 1 1.35 1.85 16.86
81 1 9.2 1.76 12.41
82 1 13.02 4.47 10.14
83 1 14.35 5.46 12.34
84 1 13.05 4.57 14.6
85 1 10.46 0.91 14.71
86 1 10.46 5.51 14.69
87 1 13.1 1.71 10.15
88 1 13.07 1.81 14.61
89 1 9.15 4.61 16.94
90 1 9.2 4.52 12.44
91 1 10.45 5.49 10.18
92 1 10.49 0.82 10.16
93 1 14.39 0.79 12.41
94 1 14.36 0.88 16.87
95 1 14.33 5.4 16.89
96 1 9.17 1.85 16.96
97 1 1.3 9.11 12.45
98 1 5.28 11.83 10.1
99 1 6.59 12.74 12.34
100 1 5.3 11.92 14.65
101 1 2.59 8.19 14.71
102 1 2.69 12.79 14.6
103 1 5.2 9.07 10.2
104 1 5.17 9.16 14.66
105 1 1.38 11.89 16.85
106 1 1.38 11.87 12.35
107 1 2.71 12.84 10.14
108 1 2.56 8.25 10.16
109 1 6.49 8.14 12.46
110 1 6.46 8.24 16.91
111 1 6.61 12.83 16.89
112 1 1.3 9.13 16.96
113 1 9.09 9.19 12.41
114 1 13.13 11.9 10.14
115 1 14.41 12.74 12.44
116 1 13.1 11.84 14.69
117 1 10.38 8.27 14.66
118 1 10.53 12.86 14.64
119 1 12.99 9.14 10.15
120 1 13.02 9.08 14.7
121 1 9.23 11.96 16.9
122 1 9.23 11.95 12.39
123 1 10.51 12.77 10.09
124 1 10.38 8.25 10.16
125 1 14.29 8.22 12.41
126 1 14.31 8.16 16.96
127 1 14.44 12.83 16.89
128 1 9.09 9.21 16.91
129 2 0.46 1.48 3.37
130 2 1.33 2.71 3.37
131 2 5.68 4.81 1.86
132 2 5.67 4.81 0.35
133 2 6.13 5.1 4.1
134 2 6.56 6.34 3.34
135 2 4.38 4.84 5.6
136 2 5.7 4.83 6.36
137 2 2.17 1.18 4.88
138 2 3.49 1.17 5.63
139 2 2.23 5.15 6.35
140 2 2.65 6.39 5.59
141 2 5.65 1.43 1.86
142 2 5.23 2.67 1.1
143 2 5.23 2.69 5.61
144 2 5.65 1.45 6.37
145 2 1.78 4.88 8.61
146 2 1.33 3.65 7.85
147 2 1.78 4.85 4.11
148 2 1.78 4.85 2.6
149 2 3.52 5.14 1.1
150 2 2.64 6.37 1.11
151 2 3.49 1.15 1.11
152 2 2.17 1.16 1.87
153 2 6.09 1.14 4.12
154 2 6.53 14.6171 3.37
155 2 6.09 1.15 8.63
156 2 6.53 14.6371 7.86
157 2 7.43 5.14 7.86
158 2 6.53 6.36 7.86
159 2 1.77 1.51 7.13
160 2 0.46 1.51 7.89
161 2 9.16 2.71 3.37
162 2 8.28 1.48 3.37
163 2 13.06 3.59 1.12
164 2 13.5 4.82 0.36
165 2 13.94 5.12 2.61
166 2 15.25 5.14 3.36
167 2 13.52 4.82 4.86
168 2 12.21 4.84 5.62
169 2 11.31 1.17 5.63
170 2 10 1.18 4.88
171 2 10.47 6.39 5.62
172 2 10.05 5.15 4.86
173 2 12.18 1.46 1.11
174 2 13.49 1.45 1.86
175 2 13.05 2.69 5.61
176 2 13.48 1.45 6.37
177 2 9.61 4.88 7.11
178 2 9.16 3.65 7.88
179 2 8.3 4.84 3.36
180 2 9.61 4.85 2.61
181 2 10.04 5.17 0.35
182 2 11.35 5.14 1.11
183 2 10.02 1.16 0.36
184 2 10.02 1.16 1.88
185 2 13.91 1.14 4.12
186 2 14.35 14.6171 3.37
187 2 13.91 1.15 8.63
188 2 14.36 14.6371 7.86
189 2 13.94 5.14 7.11
190 2 15.26 5.16 7.86
191 2 8.28 1.51 7.89
192 2 9.59 1.51 7.13
193 2 1.75 8.83 4.12
194 2 1.33 10.07 3.36
195 2 4.39 12.19 1.1
196 2 5.25 10.94 1.11
197 2 7.43 12.49 3.36
198 2 6.12 12.48 2.61
199 2 5.68 12.17 4.85
200 2 5.68 12.18 6.37
201 2 2.17 8.54 6.37
202 2 3.49 8.52 5.61
203 2 2.64 13.74 5.61
204 2 3.52 12.51 5.61
205 2 4.35 8.81 1.13
206 2 5.66 8.81 0.36
207 2 5.23 10.04 5.63
208 2 5.65 8.8 4.88
209 2 1.78 12.24 7.11
210 2 1.34 11.01 7.88
211 2 0.48 12.2 3.35
212 2 1.79 12.21 4.11
213 2 2.23 12.49 1.85
214 2 2.65 13.72 1.09
215 2 2.19 8.52 1.88
216 2 2.2 8.52 0.36
217 2 7.38 8.49 3.39
218 2 6.07 8.48 2.63
219 2 6.07 8.5 7.13
220 2 7.38 8.51 7.89
221 2 6.12 12.49 8.61
222 2 7.43 12.51 7.85
223 2 0.46 8.86 7.86
224 2 1.77 8.86 8.62
225 2 9.57 8.85 4.13
226 2 9.57 8.84 2.61
227 2 12.21 12.19 1.1
228 2 13.08 10.94 1.11
229 2 13.95 12.48 2.6
230 2 13.95 12.48 4.11
231 2 13.52 12.18 6.36
232 2 12.21 12.19 5.6
233 2 11.31 8.52 5.61
234 2 10 8.54 6.37
235 2 10.47 13.74 5.62
236 2 10.05 12.51 4.86
237 2 13.47 8.8 1.87
238 2 13.47 8.81 0.36
239 2 13.48 8.8 4.88
240 2 13.05 10.04 5.63
241 2 9.6 12.22 8.62
242 2 9.6 12.22 7.11
243 2 9.16 10.99 3.37
244 2 9.61 12.22 2.61
245 2 10.48 13.72 1.13
246 2 10.05 12.49 0.35
247 2 11.3 8.53 1.12
248 2 10.43 7.29 1.11
249 2 15.2 8.51 3.37
250 2 14.34 7.26 3.37
251 2 14.36 7.28 7.88
252 2 13.91 8.52 7.13
253 2 15.26 12.51 7.85
254 2 13.94 12.49 8.61
255 2 9.15 10.09 7.86
256 2 9.57 8.85 8.62
257 2 1.77 1.49 11.66
258 2 0.46 1.49 12.42
259 2 5.68 4.81 10.9
260 2 5.67 4.81 9.38
261 2 6.56 6.34 12.38
262 2 6.13 5.1 13.14
263 2 4.39 4.85 14.65
264 2 5.25 3.61 14.65
265 2 2.19 1.18 13.9
266 2 2.19 1.18 15.42
267 2 2.23 5.15 15.39
268 2 2.65 6.39 14.63
269 2 4.36 1.44 10.15
270 2 5.24 2.67 10.15
271 2 4.35 1.48 14.65
272 2 5.66 1.47 15.41
273 2 1.78 4.88 17.65
274 2 1.33 3.65 16.89
275 2 1.78 4.87 13.14
276 2 1.34 3.64 12.39
277 2 2.21 5.16 10.89
278 2 3.52 5.14 10.13
279 2 2.19 1.18 9.41
280 2 2.63 14.6471 10.16
281 2 6.09 1.13 11.65
282 2 6.09 1.14 13.17
283 2 6.53 14.6371 16.9
284 2 6.09 1.15 17.67
285 2 7.43 5.16 16.9
286 2 6.12 5.14 16.15
287 2 0.46 1.51 16.89
288 2 1.77 1.51 17.66
289 2 8.28 1.48 12.41
290 2 9.16 2.71 12.4
291 2 13.5 4.81 9.38
292 2 13.5 4.81 10.9
293 2 15.25 5.14 12.39
294 2 13.94 5.13 13.14
295 2 13.51 4.84 15.39
296 2 13.06 3.61 14.64
297 2 10.46 14.6671 14.67
298 2 10.01 1.19 13.91
299 2 11.35 5.16 14.65
300 2 10.04 5.17 13.9
301 2 13.07 2.67 10.15
302 2 12.18 1.44 10.15
303 2 13.49 1.47 15.41
304 2 12.18 1.48 14.65
305 2 9.16 3.65 16.91
306 2 9.61 4.88 16.15
307 2 9.61 4.85 11.64
308 2 8.3 4.84 12.4
309 2 10.04 5.17 9.39
310 2 11.35 5.14 10.15
311 2 10.02 1.16 10.91
312 2 10.02 1.16 9.4
313 2 13.92 1.13 11.65
314 2 13.92 1.14 13.17
315 2 13.91 1.15 17.67
316 2 14.36 14.6371 16.9
317 2 14.36 6.36 16.9
318 2 15.25 5.14 16.9
319 2 8.28 1.51 16.93
320 2 9.59 1.51 16.17
321 2 1.75 8.83 11.66
322 2 1.33 10.07 12.41
323 2 5.7 12.16 10.89
324 2 4.38 12.17 10.13
325 2 6.13 12.46 13.14
326 2 6.56 13.7 12.38
327 2 4.39 12.21 14.65
328 2 5.25 10.96 14.65
329 2 3.49 8.52 14.67
330 2 2.17 8.53 13.91
331 2 2.65 13.74 14.63
332 2 2.23 12.5 15.39
333 2 5.22 10.02 10.17
334 2 5.65 8.79 9.4
335 2 5.65 8.81 13.9
336 2 5.65 8.82 15.42
337 2 0.48 12.22 16.89
338 2 1.79 12.22 17.65
339 2 0.48 12.2 12.39
340 2 1.79 12.21 13.14
341 2 2.23 12.52 9.38
342 2 2.23 12.51 10.89
343 2 2.61 7.29 10.15
344 2 3.48 8.53 10.16
345 2 7.38 8.49 12.42
346 2 6.07 8.48 11.66
347 2 6.52 7.28 16.91
348 2 7.37 8.53 16.91
349 2 6.14 12.5 17.65
350 2 6.13 12.5 16.14
351 2 1.75 8.84 16.16
352 2 1.33 10.09 16.92
353 2 9.57 8.85 13.16
354 2 9.57 8.84 11.65
355 2 13.08 10.94 10.15
356 2 12.21 12.19 10.14
357 2 14.37 13.7 12.41
358 2 13.95 12.46 11.65
359 2 12.21 12.19 14.66
360 2 13.52 12.17 13.9
361 2 11.3 8.55 14.66
362 2 10.43 7.31 14.66
363 2 10.05 12.53 15.4
364 2 10.05 12.52 13.89
365 2 13.47 8.81 9.39
366 2 13.47 8.8 10.91
367 2 13.48 8.8 13.91
368 2 13.05 10.04 14.67
369 2 9.19 11.01 16.9
370 2 8.31 12.24 16.9
371 2 8.31 12.22 12.39
372 2 9.19 10.99 12.4
373 2 10.48 13.72 10.13
374 2 10.05 12.49 10.88
375 2 10.43 7.29 10.15
376 2 11.3 8.53 10.16
377 2 15.2 8.51 12.41
378 2 14.34 7.26 12.4
379 2 15.2 8.51 16.93
380 2 13.89 8.5 16.17
381 2 13.96 12.5 17.65
382 2 13.95 12.5 16.14
383 2 9.57 8.86 16.15
384 2 9.56 8.86 17.67
ITEM: TIMESTEP
200
ITEM: NUMBER OF ATOMS
384
ITEM: BOX BOUNDS pp pp pp
2.4136573719089505e-01 1.5404311792809107e+01
2.3499875751976607e-01 1.4472146532480238e+01
3.2049711169290340e-01 1.7752539918307097e+01
ITEM: ATOMS id type x y z
1 1 1.30762 1.7273 3.33633
2 1 5.0486 4.43227 1.01865
3 1 6.36347 5.32156 3.33631
4 1 5.02009 4.35052 5.41055
5 1 2.58633 0.728945 5.38858
6 1 2.46927 5.28554 5.48876
7 1 5.08384 1.80895 1.03379
8 1 5.12832 1.67202 5.47975
9 1 1.25326 4.31485 7.61037
10 1 1.20605 4.37926 3.28052
11 1 2.52096 5.29312 1.20235
12 1 2.49999 0.847786 1.08796
13 1 6.22169 0.895747 3.24846
14 1 6.29323 0.704298 7.64286
15 1 6.33371 5.27576 7.57635
16 1 1.43567 1.63709 7.56245
17 1 8.77079 1.76747 3.21468
18 1 12.7093 4.41417 1.03519
19 1 13.9583 5.25125 3.22099
20 1 12.7327 4.39616 5.44571
21 1 10.1601 0.80963 5.35012
22 1 10.1176 5.21801 5.44444
23 1 12.7681 1.70061 1.0273
24 1 12.74 1.7391 5.31276
25 1 8.88447 4.23753 7.62789
26 1 8.88811 4.4507 3.23582
27 1 10.0922 5.34156 1.07742
28 1 10.159 0.965993 1.06274
29 1 13.9069 0.761128 3.14824
30 1 13.9875 0.821369 7.59948
31 1 13.991 5.2396 7.68205
32 1 8.85443 1.59802 7.64788
33 1 1.27687 8.77714 3.21762
34 1 5.02691 11.5178 1.10798
35 1 6.37782 12.3826 3.17994
36 1 5.02354 11.492 5.40171
37 1 2.52904 8.02748 5.39156
38 1 2.48561 12.3191 5.29358
39 1 5.09203 8.88875 1.1313
40 1 5.08025 8.83503 5.40178
41 1 1.3234 11.5638 7.49594
42 1 1.30243 11.4659 3.11731
43 1 2.53602 12.4007 1.04073
44 1 2.59125 7.87567 1.06429
45 1 6.32219 7.94046 3.30595
46 1 6.28021 7.92537 7.58879
47 1 6.21952 12.3937 7.57554
48 1 1.29025 8.85463 7.57045
49 1 8.89284 8.83134 3.26054
50 1 12.697 11.4621 1.01698
51 1 13.9525 12.2638 3.19456
52 1 12.7336 11.5647 5.40706
53 1 10.1091 7.88098 5.4151
54 1 10.117 12.3501 5.3438
55 1 12.6238 8.83468 1.20827
56 1 12.5613 8.85999 5.3295
57 1 8.76891 11.3851 7.52549
58 1 8.83651 11.4633 3.19056
59 1 10.1303 12.4704 1.08348
60 1 10.0937 8.08545 1.12976
61 1 13.9499 7.97201 3.2355
62 1 13.8529 7.91893 7.50262
63 1 13.9584 12.5797 7.59653
64 1 8.74789 8.78769 7.6146
65 1 1.30988 1.63755 11.9933
66 1 5.05038 4.41246 9.81297
67 1 6.24719 5.35175 11.9526
68 1 5.1134 4.36398 14.1042
69 1 2.6415 0.894347 14.2289
70 1 2.64871 5.29893 14.1673
71 1 5.17078 1.76891 9.84276
72 1 5.1211 1.67076 14.1959
73 1 1.38268 4.37826 16.3139
74 1 1.42174 4.40313 11.9652
75 1 2.57787 5.25718 9.70096
76 1 2.56147 0.876248 9.78313
77 1 6.27624 0.84638 11.9962
78 1 6.43393 0.735888 16.3651
79 1 6.29218 5.36351 16.3479
80 1 1.30899 1.71709 16.3941
81 1 8.8546 1.68641 11.9473
82 1 12.7313 4.34547 9.74883
83 1 13.9761 5.30208 11.9713
84 1 12.5974 4.40772 14.0392
85 1 10.2327 0.799754 14.1831
86 1 10.0447 5.21189 14.0361
87 1 12.673 1.78752 9.80687
88 1 12.6983 1.69604 14.2001
89 1 8.80616 4.42578 16.3617
90 1 8.82798 4.40264 11.8936
91 1 10.1747 5.27754 9.7154
92 1 10.1002 0.881437 9.82978
93 1 13.8742 0.840709 11.9831
94 1 14.0066 0.714492 16.3156
95 1 13.9842 5.26075 16.2406
96 1 8.93109 1.83638 16.3087
97 1 1.20727 8.86092 11.905
98 1 5.06728 11.6003 9.73468
99 1 6.35973 12.3671 11.949
100 1 5.11593 11.4642 14.1501
101 1 2.59944 7.99507 14.2203
102 1 2.61684 12.411 14.1296
103 1 5.03571 8.89556 9.73227
104 1 5.05438 8.81086 14.2363
105 1 1.3687 11.4728 16.2318
106 1 1.30109 11.4864 11.9996
107 1 2.52612 12.4171 9.84188
108 1 2.53033 7.93702 9.76135
109 1 6.17767 7.96659 11.8679
110 1 6.37048 7.95229 16.3662
111 1 6.35168 12.3516 16.3562
112 1 1.23614 8.84023 16.3262
113 1 8.80658 8.64366 11.9708
114 1 12.6008 11.5529 9.72762
115 1 13.9115 12.4446 11.9644
116 1 12.7867 11.5007 14.1902
117 1 10.019 7.93095 14.2727
118 1 10.2652 12.4052 14.1864
119 1 12.6111 8.90597 9.74194
120 1 12.6407 8.88373 14.2198
121 1 8.88582 11.6034 16.2641
122 1 8.96259 11.4606 12.0043
123 1 10.1055 12.3916 9.67247
124 1 10.1388 7.89044 9.77651
125 1 13.7822 7.96017 11.9791
126 1 13.9254 7.94891 16.3471
127 1 14.051 12.3578 16.3297
128 1 8.8159 8.85022 16.3613
129 2 0.450581 1.39457 3.54325
130 2 1.39358 2.8955 3.36692
131 2 5.46034 4.81068 1.80019
132 2 5.63512 4.59469 17.6819
133 2 5.93357 4.82146 4.03006
134 2 6.28744 6.28945 3.35863
135 2 3.93896 4.58094 5.37793
136 2 5.48171 4.69826 6.37964
137 2 2.1153 1.22769 4.74378
138 2 3.37586 1.36868 5.40118
139 2 2.01233 5.12603 6.40223
140 2 2.63251 6.23996 5.30277
141 2 5.46819 1.45999 1.85662
142 2 5.14518 2.64099 1.0277
143 2 5.0629 2.6924 5.55151
144 2 5.66143 1.37506 6.27213
145 2 1.78522 4.71378 8.51097
146 2 1.45435 3.31019 7.70168
147 2 1.8245 4.62888 3.94929
148 2 1.85219 4.86626 2.66426
149 2 3.48627 5.02046 1.06349
150 2 2.42974 6.28454 1.14379
151 2 3.45902 1.1897 0.827921
152 2 2.1821 1.33437 1.89015
153 2 5.6833 1.16949 4.0701
154 2 6.119 14.1187 3.31365
155 2 5.80974 1.01483 8.46889
156 2 6.23169 14.065 7.68134
157 2 7.38121 4.81509 7.35349
158 2 6.48618 6.379 7.5238
159 2 1.83776 1.18193 6.77671
160 2 0.465297 1.11346 7.60645
161 2 8.72045 2.70289 3.37264
162 2 7.85247 1.44162 3.1425
163 2 12.5717 3.40612 0.998771
164 2 13.236 4.65871 17.6846
165 2 13.5109 4.92594 2.34735
166 2 14.8714 4.88931 3.30532
167 2 13.1475 4.70531 4.63448
168 2 11.8541 4.78675 5.13992
169 2 11.1167 1.0896 5.41058
170 2 9.51109 1.37833 4.58534
171 2 10.032 6.33372 5.38215
172 2 9.59108 4.90032 4.73309
173 2 11.7074 1.54059 1.09023
174 2 13.1571 1.22792 1.748
175 2 12.5957 2.67746 5.41623
176 2 13.0244 1.43431 6.28442
177 2 9.48755 4.74151 6.83795
178 2 8.7209 3.11209 7.60579
179 2 7.95544 4.70316 3.35121
180 2 9.36519 4.74902 2.34327
181 2 9.56482 4.86591 17.7247
182 2 11.1211 5.11212 0.900378
183 2 9.60059 1.19218 0.322564
184 2 9.67896 1.67227 1.83375
185 2 13.3703 1.13746 3.94302
186 2 14.0253 14.0409 3.26387
187 2 13.4418 1.52512 8.35294
188 2 13.9459 13.9179 7.56273
189 2 13.659 4.86901 6.68213
190 2 15.0209 4.96139 7.544
191 2 8.04391 0.915409 7.57329
192 2 9.35274 1.20043 6.81886
193 2 1.86456 8.63815 4.12335
194 2 1.41851 9.74907 3.10505
195 2 4.00929 11.619 1.1032
196 2 5.07014 10.495 1.17067
197 2 7.29582 12.0274 3.27355
198 2 5.9664 12.1365 2.42503
199 2 5.67778 11.8017 4.82479
200 2 5.48342 11.8855 6.19226
201 2 1.90071 8.33147 6.32948
202 2 3.70462 8.34198 5.40735
203 2 2.64246 13.3205 5.15954
204 2 3.44101 12.0412 5.1211
205 2 4.05654 8.61691 1.32933
206 2 5.41504 8.40447 0.395517
207 2 4.99279 9.94626 5.38033
208 2 5.52867 8.4904 4.41597
209 2 1.93823 12.0108 6.86494
210 2 1.1756 10.5963 7.37142
211 2 0.24428 11.9113 3.11012
212 2 1.97958 11.7994 3.94284
213 2 2.00346 12.1387 1.68115
214 2 2.43668 13.3657 0.973759
215 2 2.07683 8.17516 1.94765
216 2 2.12446 8.31613 17.741
217 2 7.27056 8.41299 3.33906
218 2 5.97111 8.5169 2.62982
219 2 5.81771 8.2259 6.78953
220 2 7.38105 8.29326 7.55794
221 2 5.82908 11.9189 8.30022
222 2 7.19718 11.9175 7.6327
223 2 0.536226 8.32223 7.69087
224 2 1.90458 8.4053 8.24575
225 2 9.35189 8.42849 4.13247
226 2 9.23753 8.40244 2.38093
227 2 11.7729 11.8828 1.17659
228 2 12.7172 10.3888 1.16732
229 2 13.4537 11.8488 2.38494
230 2 13.3948 12.026 3.93472
231 2 13.2181 12.0522 6.21572
232 2 11.7319 11.9849 5.55142
233 2 11.135 8.05828 5.37535
234 2 9.69507 8.29274 6.15095
235 2 10.2575 13.3896 5.29314
236 2 9.86407 12.1045 4.51022
237 2 13.1263 8.43391 2.04759
238 2 13.0996 8.4463 17.603
239 2 13.0489 8.60161 4.45992
240 2 12.3977 9.81372 5.30483
241 2 9.23902 11.8728 8.20666
242 2 9.11097 11.8212 6.54516
243 2 8.92356 10.4555 3.25766
244 2 9.49851 11.7657 2.48336
245 2 9.9391 13.5209 1.10757
246 2 9.71983 12.0987 17.6648
247 2 11.1224 8.27155 1.18799
248 2 10.1724 7.1059 1.04055
249 2 14.9671 8.2846 3.42034
250 2 14.0159 7.0035 3.22258
251 2 13.7066 6.99022 7.65795
252 2 13.4561 8.34701 6.61484
253 2 14.8683 12.1597 7.59451
254 2 13.3614 11.8735 8.24596
255 2 8.85162 9.80116 7.51538
256 2 9.15439 8.38235 8.44274
257 2 1.56534 1.24248 11.0965
258 2 0.433832 1.39071 11.8805
259 2 5.66256 4.91478 10.5508
260 2 5.57113 4.69835 9.0227
261 2 6.17596 6.38231 11.7879
262 2 5.78423 5.02095 12.7705
263 2 4.18585 4.59532 13.9394
264 2 5.09733 3.47444 14.1554
265 2 1.9772 1.29444 13.5628
266 2 2.26783 1.18197 15.1345
267 2 2.2882 4.91215 15.0114
268 2 2.35861 6.31442 14.0968
269 2 4.16331 1.52446 9.9135
270 2 5.11682 2.7109 9.95808
271 2 4.23114 1.38705 14.323
272 2 5.6671 1.56157 14.961
273 2 1.62744 4.6243 17.1356
274 2 1.30631 3.4634 16.1974
275 2 2.15194 4.78498 12.9167
276 2 1.34759 3.32485 11.8603
277 2 1.97745 4.92566 10.5062
278 2 3.50612 4.74206 9.76861
279 2 2.0974 1.24339 8.9591
280 2 2.57286 14.0287 9.57113
281 2 5.92732 1.17969 11.2734
282 2 5.84033 1.1872 12.823
283 2 6.49403 13.9759 16.3805
284 2 6.02306 1.24955 17.1368
285 2 7.19624 4.95625 16.4132
286 2 5.79754 4.89589 15.5727
287 2 0.284241 1.26292 16.4473
288 2 1.63204 1.4879 17.2319
289 2 7.82912 1.36224 11.9135
290 2 8.74277 2.68641 11.8728
291 2 13.365 4.68793 8.83263
292 2 13.1536 4.66095 10.6385
293 2 14.882 5.12416 12.0362
294 2 13.5449 4.87501 12.8514
295 2 13.0697 4.8149 14.9167
296 2 12.7386 3.34295 14.1883
297 2 10.2628 14.1119 13.9854
298 2 9.49817 1.03527 13.4649
299 2 11.05 5.02213 13.9486
300 2 9.62662 4.97481 13.1324
301 2 12.7798 2.85934 9.91624
302 2 11.7235 1.39475 9.80733
303 2 13.0477 1.43998 14.9937
304 2 11.7601 1.54301 14.053
305 2 8.76509 3.49304 16.2947
306 2 9.39628 4.64271 15.6722
307 2 9.15572 4.75516 10.9414
308 2 8.03136 4.67894 11.7905
309 2 9.84868 5.01473 8.94327
310 2 11.0544 4.95362 9.76261
311 2 9.46749 1.28588 10.5751
312 2 9.72742 1.26999 9.10561
313 2 13.4944 1.30211 11.0001
314 2 13.4507 1.2002 12.8388
315 2 13.5702 0.985383 17.1557
316 2 14.066 13.8554 16.4378
317 2 13.912 6.38022 16.235
318 2 15.0682 4.98767 16.1191
319 2 7.92044 1.45261 16.3056
320 2 9.50379 1.46619 15.5592
321 2 1.53118 8.70265 11.1146
322 2 1.32186 9.76434 11.8365
323 2 5.63037 11.8873 10.5183
324 2 4.01427 12.0541 9.73917
325 2 5.92573 12.0837 12.7825
326 2 6.22213 13.3219 12.136
327 2 4.21174 11.7671 13.9476
328 2 4.97657 10.351 13.8487
329 2 3.50245 8.3536 14.1743
330 2 2.01923 8.35364 13.3145
331 2 2.66911 13.4191 13.9592
332 2 2.063 12.1918 14.8936
333 2 4.95936 9.88686 9.82012
334 2 5.51413 8.69413 8.92494
335 2 5.67958 8.57163 13.4592
336 2 5.5796 8.5775 14.9299
337 2 0.582098 11.8368 16.3551
338 2 1.84191 11.9102 17.1594
339 2 0.354379 11.8578 11.989
340 2 1.88404 11.8606 12.5496
341 2 2.19809 12.08 9.05461
342 2 1.92091 12.1844 10.7279
343 2 2.55525 6.94567 9.87881
344 2 3.45153 8.11234 9.50128
345 2 7.02106 8.24915 11.8364
346 2 5.78709 8.58008 11.1713
347 2 6.52364 6.94699 16.2158
348 2 7.22202 8.42306 16.4648
349 2 5.89673 11.9873 17.1995
350 2 5.81669 11.9385 15.655
351 2 1.93517 8.58018 15.5438
352 2 1.13509 9.83927 16.3499
353 2 9.40933 8.22473 12.9293
354 2 9.2591 8.29695 11.1306
355 2 12.8214 10.5938 9.86319
356 2 11.7398 11.9189 9.74471
357 2 13.7729 13.5437 11.971
358 2 13.3633 12.0587 11.0936
359 2 11.9043 11.9561 14.0324
360 2 13.3848 11.6663 13.4292
361 2 10.9707 8.18082 14.1719
362 2 9.91161 6.84351 14.1853
363 2 9.68674 11.9762 14.8925
364 2 9.75178 12.2288 13.3897
365 2 12.9936 8.54487 8.86999
366 2 13.1142 8.37976 10.4266
367 2 13.0462 8.48799 13.2412
368 2 12.5026 9.82979 14.2856
369 2 9.01684 10.7305 16.3576
370 2 8.02938 11.7545 16.1737
371 2 8.08865 11.7933 12.1861
372 2 8.85222 10.5682 12.118
373 2 10.1305 13.3992 9.73515
374 2 9.75091 12.3693 10.5614
375 2 10.1484 6.99793 9.65807
376 2 10.9881 8.27167 9.45665
377 2 14.7637 8.43185 11.9384
378 2 13.8873 6.97917 12.2205
379 2 14.8244 8.19591 16.291
380 2 13.2899 8.32621 15.6237
381 2 13.4801 11.88 17.234
382 2 13.427 12.1921 15.583
383 2 9.24614 8.6132 15.5315
384 2 9.36701 8.5596 17.2689
ITEM: TIMESTEP
400
ITEM: NUMBER OF ATOMS
384
ITEM: BOX BOUNDS pp pp pp
4.6654049692420863e-01 1.5179137033075790e+01
4.3348055518130035e-01 1.4273664734818711e+01
6.2313843955395143e-01 1.7449898590446061e+01
ITEM: ATOMS id type x y z
1 1 1.431 1.69508 3.31899
2 1 5.02194 4.45795 1.1315
3 1 6.21512 5.12849 3.2626
4 1 4.84978 4.27612 5.17723
5 1 2.52826 0.529576 5.37199
6 1 2.44699 5.15301 5.28111
7 1 4.86004 1.75118 1.20602
8 1 4.96668 1.59868 5.19654
9 1 1.19328 4.28616 7.44822
10 1 1.17539 4.28806 3.13811
11 1 2.52946 5.02847 0.992785
12 1 2.4586 0.982828 1.11342
13 1 6.15654 0.809169 3.18362
14 1 6.28858 0.845829 7.32834
15 1 6.15604 5.11694 7.19793
16 1 1.39532 1.69679 7.34979
17 1 8.56036 1.78143 3.16929
18 1 12.2024 4.21844 0.746681
19 1 13.3981 5.00622 2.98038
20 1 12.2712 4.10996 5.09682
21 1 9.85408 0.661246 5.14034
22 1 9.83957 5.11296 5.18113
23 1 12.2612 1.56562 0.999478
24 1 12.4402 1.55083 5.28165
25 1 8.66639 4.15841 7.3041
26 1 8.63008 4.31517 2.99804
27 1 9.90106 5.2128 0.868332
28 1 9.74402 0.885006 1.06668
29 1 13.6098 0.918095 3.16471
30 1 13.5995 0.79015 7.52495
31 1 13.5589 5.22157 7.12321
32 1 8.7111 1.52313 7.33693
33 1 1.33128 8.5476 3.15101
34 1 4.94101 11.147 1.05334
35 1 6.21683 12.0776 2.99615
36 1 4.97968 11.2043 5.12947
37 1 2.47557 7.7259 5.39462
38 1 2.3998 11.8831 5.22593
39 1 4.82773 8.57529 1.09014
40 1 4.89757 8.60383 5.13112
41 1 1.20063 11.0767 7.34298
42 1 1.2688 11.1488 3.06979
43 1 2.58519 12.2226 1.01856
44 1 2.41567 7.61847 0.979566
45 1 6.27276 7.71702 3.10889
46 1 6.16574 7.76297 7.27932
47 1 6.00866 12.0287 7.33064
48 1 1.10836 8.46087 7.32033
49 1 8.68645 8.60881 3.08862
50 1 12.3069 11.1403 1.10836
51 1 13.444 12.2222 3.15519
52 1 12.3786 11.3486 5.27323
53 1 9.84471 7.59288 5.26947
54 1 9.77355 11.959 5.27374
55 1 12.3385 8.61709 1.13798
56 1 12.2056 8.78174 5.19744
57 1 8.48216 11.1872 7.25974
58 1 8.65541 11.1333 3.14622
59 1 9.99717 12.1586 1.0527
60 1 9.86154 7.76682 1.03488
61 1 13.5474 7.69118 3.1198
62 1 13.3126 7.76698 7.22296
63 1 13.5207 12.1406 7.48089
64 1 8.51188 8.57909 7.27846
65 1 1.40585 1.64107 11.5676
66 1 5.03351 4.23924 9.41812
67 1 6.15606 5.26637 11.6133
68 1 4.97742 4.4377 13.6006
69 1 2.53207 0.767779 13.6877
70 1 2.51874 5.2048 13.6618
71 1 5.02091 1.6646 9.64715
72 1 4.96954 1.83673 13.7763
73 1 1.16174 4.32253 15.6869
74 1 1.35374 4.17168 11.7118
75 1 2.45254 5.12033 9.6327
76 1 2.58321 0.798327 9.54519
77 1 6.23858 0.690152 11.7281
78 1 6.08991 0.775686 15.8921
79 1 6.29017 5.16056 15.7563
80 1 1.17315 1.62614 15.7495
81 1 8.51417 1.72113 11.5602
82 1 12.3899 4.32219 9.45549
83 1 13.6006 5.16885 11.5421
84 1 12.2484 4.163 13.5844
85 1 9.7974 0.767933 13.5734
86 1 9.76362 4.97479 13.4755
87 1 12.2201 1.73834 9.57662
88 1 12.2868 1.47063 13.7335
89 1 8.68207 4.09724 15.6252
90 1 8.54423 4.29319 11.3085
91 1 9.89006 5.19915 9.2632
92 1 9.93771 0.709304 9.47315
93 1 13.564 1.0248 11.5157
94 1 13.6264 0.580097 15.8711
95 1 13.4541 5.17807 15.5393
96 1 8.62974 1.49386 15.741
97 1 1.21172 8.70442 11.5436
98 1 4.8984 11.2343 9.50997
99 1 6.18037 12.0091 11.664
100 1 4.90533 11.264 13.7733
101 1 2.38619 7.73747 13.6276
102 1 2.41233 12.0475 13.5778
103 1 4.77638 8.64183 9.41008
104 1 4.70518 8.72993 13.5597
105 1 1.35488 11.0571 15.8027
106 1 1.20735 11.3756 11.4888
107 1 2.41975 12.111 9.43494
108 1 2.3085 7.67358 9.45012
109 1 6.06203 7.87639 11.5272
110 1 6.22303 7.81018 15.7092
111 1 6.19852 12.0302 15.7667
112 1 1.24529 8.56585 15.7465
113 1 8.71235 8.65571 11.4809
114 1 12.1586 11.2804 9.45554
115 1 13.5621 12.2126 11.4487
116 1 12.1944 11.2776 13.5225
117 1 9.78425 7.61539 13.7124
118 1 9.70211 12.023 13.466
119 1 12.2636 8.58676 9.50729
120 1 12.2292 8.60944 13.5493
121 1 8.67683 11.3502 15.8223
122 1 8.55571 11.1217 11.5192
123 1 9.75036 12.0071 9.45293
124 1 9.80104 7.70163 9.4497
125 1 13.5444 7.71184 11.4858
126 1 13.4674 7.80064 15.6698
127 1 13.5647 11.7871 15.7161
128 1 8.5469 8.63393 15.7788
129 2 15.1745 1.37289 3.18733
130 2 1.41003 2.73781 3.40004
131 2 5.60473 4.67703 1.8475
132 2 5.75895 4.59235 17.2145
133 2 5.68093 4.86822 4.01901
134 2 6.22343 6.21947 3.27246
135 2 3.86709 4.7367 5.1658
136 2 5.5822 4.62501 6.00813
137 2 2.07277 0.798096 4.33726
138 2 3.29178 1.1509 5.19629
139 2 1.89734 4.86846 5.9907
140 2 2.43491 6.22547 5.38885
141 2 5.39467 1.45883 1.92171
142 2 4.84538 2.65133 0.895946
143 2 4.56243 2.56966 5.04238
144 2 5.28688 1.3019 6.2647
145 2 1.65793 4.69452 8.30969
146 2 1.2101 3.33203 7.49736
147 2 1.62997 4.68175 3.87553
148 2 1.72268 4.74527 2.45365
149 2 3.51665 4.87536 1.06234
150 2 2.50041 6.01385 0.972987
151 2 3.28212 1.41872 1.03431
152 2 2.10281 1.30424 1.85219
153 2 5.49613 1.18117 4.07752
154 2 6.23344 13.6055 3.24451
155 2 6.11587 1.07428 8.29824
156 2 6.31137 13.6333 7.32734
157 2 7.05947 4.92517 7.17052
158 2 6.07987 6.0024 6.96747
159 2 1.76815 1.22273 6.45446
160 2 0.617463 1.07299 7.30975
161 2 8.72005 2.81651 3.20109
162 2 7.54432 1.53284 3.16381
163 2 12.112 3.20958 0.898834
164 2 12.5262 4.43094 16.7875
165 2 12.8207 4.68254 2.01856
166 2 14.3163 4.70932 2.93145
167 2 12.6957 4.42368 4.35436
168 2 11.2486 4.56166 5.16794
169 2 10.7396 1.19854 5.17014
170 2 9.45276 1.12487 4.34294
171 2 9.58248 6.14255 5.35406
172 2 9.3957 4.84519 4.25404
173 2 11.2291 1.10512 1.05792
174 2 12.6118 1.35436 1.91078
175 2 12.2902 2.55439 5.31562
176 2 12.8034 1.29649 6.04176
177 2 8.98744 4.28398 6.51635
178 2 8.54471 3.10988 7.22152
179 2 7.77 4.59615 3.11942
180 2 9.06017 4.83397 2.27497
181 2 9.43012 4.81317 16.8608
182 2 10.9882 4.75209 0.737004
183 2 9.16753 1.23435 17.1839
184 2 9.35081 1.34805 1.87976
185 2 13.3809 1.11646 4.08949
186 2 13.3681 13.8631 3.05871
187 2 13.087 1.10892 8.14621
188 2 13.5173 13.5181 7.61109
189 2 13.2876 4.58297 6.39175
190 2 14.5702 4.98672 7.34254
191 2 7.7875 1.44034 7.06978
192 2 9.27247 1.16734 6.60175
193 2 1.99141 8.21181 4.00632
194 2 1.2175 9.57221 3.11839
195 2 3.93028 11.5098 0.833479
196 2 4.91503 10.2183 1.0862
197 2 7.18188 11.9855 2.9368
198 2 5.7188 11.6913 2.28135
199 2 5.57347 11.6273 4.29166
200 2 5.40017 11.4845 5.91784
201 2 1.98729 7.89338 6.23179
202 2 3.34011 8.09138 5.35406
203 2 2.33131 12.7624 5.30774
204 2 3.46896 11.5253 5.29413
205 2 3.96708 8.04302 1.10913
206 2 5.15273 8.23638 17.074
207 2 4.93315 9.60714 4.93766
208 2 5.44087 8.00122 4.40779
209 2 1.70649 11.3282 6.43841
210 2 0.952999 10.2127 7.34154
211 2 15.0993 11.5821 3.17873
212 2 1.7941 11.638 3.74471
213 2 1.81564 11.9333 1.59746
214 2 2.60937 13.1628 1.11698
215 2 2.06707 8.04607 1.6677
216 2 2.04372 7.89801 16.9107
217 2 7.39645 7.98633 3.19313
218 2 5.89596 8.05081 2.02265
219 2 5.78945 7.89677 6.39339
220 2 7.12251 8.23086 7.37043
221 2 5.62268 11.6997 8.30111
222 2 6.97153 11.805 7.27796
223 2 14.9122 8.04802 7.45528
224 2 1.5203 8.33542 8.37388
225 2 9.12928 8.34896 3.93581
226 2 9.15976 8.04523 2.29417
227 2 11.3612 11.5848 1.08019
228 2 12.4745 10.3468 1.05679
229 2 13.0182 11.7037 2.44249
230 2 13.0842 11.7187 3.99588
231 2 12.9734 11.781 6.12198
232 2 11.4302 11.4518 5.18148
233 2 10.8513 8.01147 5.33739
234 2 9.28772 7.97568 5.94931
235 2 9.92882 13.0372 5.212
236 2 9.46662 11.5743 4.40848
237 2 12.8095 8.1533 1.85682
238 2 12.7387 8.2554 17.0958
239 2 12.5942 8.26226 4.50365
240 2 12.3987 9.77917 5.08409
241 2 8.93877 11.4525 8.0602
242 2 8.85693 11.6812 6.54425
243 2 8.50727 10.1442 3.15573
244 2 9.29528 11.5327 2.39521
245 2 9.73864 13.0319 1.1233
246 2 9.53185 11.7607 16.9349
247 2 10.8658 7.95535 0.89803
248 2 10.1092 6.68803 0.875948
249 2 14.4606 7.92833 3.35702
250 2 13.5218 6.78458 3.11446
251 2 13.4203 6.72464 7.16487
252 2 12.964 8.24661 6.3619
253 2 14.4401 11.613 7.53009
254 2 12.9492 11.8549 8.34624
255 2 8.4369 9.66239 7.52395
256 2 8.90346 8.17465 8.17619
257 2 1.93539 1.353 10.7824
258 2 14.9976 1.44849 11.5523
259 2 5.52153 4.71887 10.0371
260 2 5.20812 4.70717 8.58751
261 2 6.02842 6.34974 11.3881
262 2 5.63441 5.00908 12.4626
263 2 4.00175 4.48405 13.6772
264 2 5.16494 3.36156 13.7688
265 2 2.18802 1.04294 12.7952
266 2 1.86973 1.00234 14.4696
267 2 1.96037 4.83191 14.4596
268 2 2.42239 6.34714 13.7074
269 2 4.09096 1.19593 9.57449
270 2 5.10178 2.76319 9.50698
271 2 4.02313 1.52954 13.8003
272 2 5.55511 1.35452 14.5311
273 2 1.64463 4.47314 16.5339
274 2 1.19442 3.19719 15.5444
275 2 1.81943 4.59213 12.5223
276 2 1.59917 3.27311 11.6786
277 2 2.07876 4.7438 10.4311
278 2 3.41571 4.69236 9.46678
279 2 2.24442 1.23705 8.61178
280 2 2.85006 13.6276 9.308
281 2 6.02435 1.18383 10.9125
282 2 5.90233 1.0826 12.5535
283 2 6.15947 13.6735 15.9978
284 2 5.52744 1.11298 16.6075
285 2 7.15804 4.74391 15.648
286 2 5.90094 4.80623 14.9135
287 2 14.9361 1.08364 15.7719
288 2 1.65317 1.47943 16.6235
289 2 7.6115 1.62171 11.8568
290 2 8.46763 2.53785 11.3732
291 2 12.7885 4.50247 8.54051
292 2 13.032 4.43023 10.2256
293 2 14.5629 4.9281 11.7094
294 2 13.2189 4.7074 12.3831
295 2 12.8652 4.66599 14.237
296 2 12.2981 3.11112 13.8793
297 2 9.72329 13.6804 13.4484
298 2 9.32236 1.08294 12.7208
299 2 10.664 4.65613 13.3232
300 2 9.28074 4.75773 12.5253
301 2 12.084 2.59495 9.31299
302 2 11.2435 1.29053 9.71392
303 2 12.8378 1.23653 14.6284
304 2 11.3 1.32971 13.7075
305 2 8.52657 3.09311 15.6056
306 2 9.19112 4.43454 14.6905
307 2 9.05946 4.82733 10.7157
308 2 7.58194 4.6506 11.4428
309 2 9.42958 4.91609 8.49702
310 2 10.8587 5.02097 9.26052
311 2 9.4031 1.11356 10.2358
312 2 9.54027 1.16716 8.66448
313 2 13.1055 1.41583 10.787
314 2 13.2392 1.35777 12.3655
315 2 13.5266 0.96149 16.8791
316 2 13.4294 13.3629 15.8205
317 2 13.4565 6.11093 15.5055
318 2 14.4215 4.90785 15.6471
319 2 7.56938 1.13895 15.9104
320 2 9.06209 1.16139 14.9221
321 2 1.72462 8.45374 10.7282
322 2 1.19687 9.61019 11.4808
323 2 5.40058 11.4845 10.2869
324 2 3.91963 11.365 9.65953
325 2 5.60735 11.6629 12.3893
326 2 6.27446 12.9079 11.735
327 2 3.97493 11.4106 13.7269
328 2 4.87294 10.2065 13.708