ITEM: TIMESTEP
0
ITEM: NUMBER OF ATOMS
384
ITEM: BOX BOUNDS pp pp pp
-3.1180958401302572e-01 1.5311809584013066e+01
-3.1180958401302572e-01 1.5311809584013066e+01
-3.1180958401302572e-01 1.5311809584013066e+01
ITEM: ATOMS id type x y z
1 1 4.57679 5.50123 13.6944
2 1 14.8875 3.66367 14.1079
3 1 8.20115 10.8513 3.91518
4 1 1.55859 4.11103 4.68534
5 1 14.0046 11.0534 10.4291
6 1 10.1562 -0.0244194 -0.0179537
7 1 13.1461 9.78511 5.92123
8 1 3.48566 13.6848 7.87681
9 1 3.32305 6.30373 3.20589
10 1 5.30735 8.37688 2.36991
11 1 13.7801 6.32188 1.70807
12 1 0.692367 10.1945 14.1186
13 1 15.0627 5.43363 4.6639
14 1 9.98456 5.97612 7.92121
15 1 12.4056 7.19481 3.96576
16 1 9.83562 2.64919 6.79506
17 1 4.60459 4.17249 11.4106
18 1 7.55062 10.3381 11.1669
19 1 8.27543 1.89543 14.4455
20 1 5.83253 14.0038 0.549654
21 1 -0.277952 13.5963 10.2649
22 1 12.6457 2.09652 6.28487
23 1 10.7129 7.40871 14.2399
24 1 2.2119 7.88472 6.40809
25 1 10.4542 9.69036 5.97773
26 1 -0.282536 8.22967 4.81222
27 1 1.6652 11.2607 4.20606
28 1 6.17365 -0.094545 10.725
29 1 12.1932 8.4542 0.381712
30 1 2.29814 6.67565 12.652
31 1 3.74006 5.65533 5.77839
32 1 7.64075 12.3667 7.75101
33 1 2.57949 3.81144 2.08856
34 1 3.31976 13.3432 0.0677147
35 1 -0.0967938 5.37115 7.46928
36 1 11.1426 14.5448 7.59235
37 1 1.26174 14.8074 2.57217
38 1 6.41618 0.335516 13.3898
39 1 0.207637 9.92258 2.18818
40 1 12.6731 13.1901 12.8323
41 1 1.29363 11.9761 7.9846
42 1 13.2286 14.8362 0.439531
43 1 -0.123887 15.1905 5.01064
44 1 8.80795 12.7708 12.0788
45 1 12.4172 6.75949 6.79319
46 1 9.49869 10.6014 8.40823
47 1 10.544 10.9934 13.3575
48 1 8.99001 12.8372 5.44675
49 1 4.04829 1.51716 14.6149
50 1 6.69928 13.1999 13.7041
51 1 4.43379 6.10378 9.26553
52 1 11.4216 -0.0969869 13.0672
53 1 8.10878 14.4288 3.40524
54 1 4.3962 2.37166 3.28729
55 1 12.1316 11.4523 8.45349
56 1 8.7458 10.8517 -0.213292
57 1 1.53862 1.7361 8.48855
58 1 8.69585 5.89847 11.616
59 1 1.22107 9.19196 8.49846
60 1 10.635 10.5731 3.14594
61 1 11.4957 4.51089 15.2148
62 1 10.9209 6.7156 10.446
63 1 4.94638 10.4223 10.3546
64 1 7.94749 8.55464 1.09697
65 1 14.5919 7.80968 8.4877
66 1 5.26248 14.7619 3.62401
67 1 5.62202 2.26942 6.97039
68 1 1.29568 -0.0251437 10.348
69 1 11.6689 12.7598 1.5126
70 1 8.10674 4.34492 9.29769
71 1 15.2574 12.5827 5.71394
72 1 5.13758 11.4238 7.95676
73 1 0.807368 7.59384 14.5622
74 1 1.07308 4.35508 11.6836
75 1 -0.103901 0.899318 12.6958
76 1 12.4336 12.7126 5.99741
77 1 6.5124 0.898083 1.44852
78 1 5.22926 7.74021 7.34722
79 1 4.69818 3.85809 0.25821
80 1 14.6318 1.53081 0.260033
81 1 8.7843 1.26425 2.88569
82 1 10.1715 2.86217 10.2074
83 1 1.97586 4.56417 8.94346
84 1 12.6683 15.2799 4.82665
85 1 10.1623 4.44247 4.67024
86 1 8.26116 6.29332 15.2182
87 1 2.75694 2.33071 12.3211
88 1 10.1168 15.0402 10.6766
89 1 0.0214213 11.8389 0.424274
90 1 9.92368 3.73613 12.9889
91 1 7.93039 3.8304 3.09944
92 1 3.45334 12.7245 2.72154
93 1 13.7442 3.34545 8.32257
94 1 1.06378 7.50528 1.70711
95 1 13.5608 9.51663 12.896
96 1 6.16563 2.34739 9.6158
97 1 6.00658 4.12469 4.96415
98 1 13.0409 2.11594 12.6389
99 1 9.44842 7.22402 5.61094
100 1 3.08802 8.31472 10.412
101 1 4.27645 12.564 12.0172
102 1 0.247817 12.7339 12.6695
103 1 6.92237 8.32243 4.80264
104 1 10.2096 9.4039 11.0142
105 1 8.10819 14.6608 9.11245
106 1 0.724807 14.5893 14.8093
107 1 7.38606 3.87893 0.612739
108 1 13.59 6.17467 11.3541
109 1 6.57455 9.82429 14.0409
110 1 6.72525 7.05567 13.1783
111 1 3.66994 10.3273 5.96103
112 1 1.66543 1.60839 5.77048
113 1 9.05834 13.0173 1.11863
114 1 4.11235 0.213829 6.02437
115 1 10.3679 8.11545 2.36753
116 1 3.8208 14.5044 10.4834
117 1 6.27696 11.8524 2.07137
118 1 3.1417 11.1769 14.1451
119 1 12.971 3.21476 1.56998
120 1 12.4061 13.5738 10.1924
121 1 14.0948 6.56232 13.8874
122 1 11.4172 0.689063 2.37021
123 1 1.65778 1.52802 1.12949
124 1 7.74882 0.714644 6.86752
125 1 13.0368 10.8806 0.0461404
126 1 14.1536 3.59273 10.8941
127 1 12.9937 3.74289 4.44237
128 1 4.93288 10.2326 0.481908
129 2 4.52916 4.87676 12.9369
130 2 4.69703 5.06241 14.547
131 2 14.6886 4.58995 14.3163
132 2 0.0945933 3.63697 13.6264
133 2 7.74221 10.0755 4.24889
134 2 8.99342 10.7228 3.34745
135 2 0.788771 4.72927 4.53377
136 2 1.81069 3.95163 3.77685
137 2 14.4008 11.9252 10.4575
138 2 13.9069 10.7269 11.3647
139 2 10.6725 0.201823 0.765773
140 2 9.47367 0.652849 -0.0632908
141 2 13.5922 9.97565 6.76473
142 2 13.2152 10.5455 5.32572
143 2 3.67781 14.0964 8.7488
144 2 3.53939 14.3835 7.27865
145 2 3.09567 5.45978 2.78243
146 2 3.60518 6.19337 4.09913
147 2 5.08995 9.05489 1.76222
148 2 4.54185 7.79795 2.5309
149 2 13.4381 6.67871 2.59019
150 2 14.7355 6.25337 1.79471
151 2 0.77524 9.18308 14.2443
152 2 0.388115 10.6288 14.9234
153 2 14.1894 4.91997 4.56536
154 2 14.9228 6.4107 4.60147
155 2 10.8762 5.93786 7.61697
156 2 9.58879 6.53361 7.20672
157 2 12.1014 7.06547 4.8105
158 2 11.5829 7.27566 3.48345
159 2 9.70669 3.06202 7.62541
160 2 9.96186 3.35305 6.0781
161 2 3.89127 3.51534 11.556
162 2 5.31618 3.63484 11.0911
163 2 8.36256 9.80951 10.99
164 2 7.91946 11.2623 11.3115
165 2 7.80256 2.56448 14.9346
166 2 7.58248 1.21916 14.1315
167 2 6.10462 13.5421 -0.242407
168 2 4.85977 13.825 0.528199
169 2 14.4101 13.8153 10.1623
170 2 -0.0704958 13.4422 11.1966
171 2 11.7088 2.1063 6.54679
172 2 12.6961 1.18401 5.89058
173 2 10.9921 7.5299 13.3514
174 2 11.2636 8.01166 14.7268
175 2 1.57728 7.89927 5.7134
176 2 1.87051 8.36741 7.16573
177 2 11.4302 9.71213 6.20698
178 2 10.3486 10.1292 5.1128
179 2 14.4149 8.445 5.04536
180 2 0.00164071 8.8165 4.03796
181 2 1.02838 11.8189 4.67407
182 2 2.36173 10.8675 4.79517
183 2 6.32838 0.734699 10.265
184 2 5.21972 -0.301306 10.6492
185 2 12.568 9.37229 0.310345
186 2 12.8634 7.95827 0.824663
187 2 2.56428 7.41349 12.0109
188 2 3.14156 6.4193 13.0935
189 2 3.16723 6.41343 5.9805
190 2 3.10221 4.98312 5.63197
191 2 7.73547 13.1577 8.33842
192 2 8.06104 12.6116 6.87934
193 2 1.75422 3.38105 1.7562
194 2 3.25148 3.1727 2.47226
195 2 3.15037 12.6412 14.9757
196 2 3.16776 12.9566 0.983888
197 2 0.0720948 5.37286 6.52711
198 2 -0.245356 6.34024 7.61737
199 2 11.6512 14.8569 8.35832
200 2 11.802 13.9131 7.23812
201 2 2.07792 14.3411 2.56175
202 2 1.50629 0.044002 2.08403
203 2 6.3968 14.9261 13.4491
204 2 6.20534 0.425411 12.4267
205 2 0.660795 9.1318 1.85703
206 2 0.694078 10.391 2.87312
207 2 12.3708 14.0972 13.0916
208 2 12.1841 12.5232 13.366
209 2 2.09163 12.5603 7.87369
210 2 0.901668 12.2269 8.80367
211 2 13.6981 0.109016 0.335681
212 2 13.4443 14.3386 15.279
213 2 14.5376 15.2076 4.93591
214 2 0.228484 14.9795 4.13145
215 2 9.24837 13.4527 11.622
216 2 9.52013 12.2417 12.5392
217 2 12.875 7.30125 7.44426
218 2 13.1287 6.09272 6.70831
219 2 8.70364 11.2231 8.31889
220 2 9.67729 10.2938 7.51515
221 2 10.4955 10.2933 12.7118
222 2 10.0325 10.7711 14.1408
223 2 9.87115 13.0955 5.5737
224 2 8.95145 12.0108 4.93614
225 2 4.74251 0.928236 14.2575
226 2 3.48888 1.81195 13.8977
227 2 7.56401 13.1017 13.1985
228 2 6.02622 12.6782 13.2435
229 2 3.65548 5.64787 8.88705
230 2 4.53028 5.65688 10.1121
231 2 10.7483 -0.0654962 13.7661
232 2 11.7812 0.808853 13.0779
233 2 8.36482 -0.291862 3.46612
234 2 8.34757 14.0066 4.25098
235 2 5.1094 1.81781 2.95108
236 2 4.6411 2.96006 4.03817
237 2 12.5339 11.0417 9.22128
238 2 11.1841 11.2095 8.49369
239 2 8.60742 10.312 0.576946
240 2 8.69537 11.7883 0.0583599
241 2 1.42282 1.68337 7.50469
242 2 1.60998 2.65673 8.73322
243 2 8.87953 5.11923 12.1645
244 2 8.03029 6.40716 12.1505
245 2 1.95332 8.95172 9.16853
246 2 1.28006 10.1574 8.3047
247 2 11.2632 11.2403 2.79611
248 2 10.7957 9.70539 2.72449
249 2 11.5653 5.40273 -0.288322
250 2 11.1896 4.32648 14.2564
251 2 10.4204 6.65681 9.62663
252 2 10.2607 6.46258 11.0571
253 2 5.87632 10.1769 10.5904
254 2 4.94364 10.8143 9.46912
255 2 7.91802 7.6928 0.604333
256 2 7.17835 8.74025 1.63464
257 2 14.2008 7.92642 9.35992
258 2 -0.267797 8.44072 8.55252
259 2 6.16366 14.3915 3.8125
260 2 4.75946 14.0077 3.26281
261 2 6.35085 1.60272 6.90857
262 2 4.84301 1.75402 6.76165
263 2 1.34137 0.662419 9.62968
264 2 0.817817 14.7755 10.0578
265 2 10.8342 13.0339 1.10914
266 2 12.2496 13.5788 1.43103
267 2 7.99168 4.93257 10.0429
268 2 8.59208 4.87508 8.55834
269 2 -0.0863874 13.5026 5.64494
270 2 0.00602987 12.1735 6.56287
271 2 6.0476 11.6847 7.84187
272 2 4.65027 12.2574 7.8746
273 2 -0.10786 7.21382 14.4417
274 2 1.40859 7.20909 13.8607
275 2 1.10879 5.19843 12.1297
276 2 0.142322 4.18446 11.4107
277 2 0.192301 0.569522 11.8253
278 2 0.262058 0.216297 13.3227
279 2 13.325 12.966 5.76917
280 2 12.474 12.1815 6.79075
281 2 6.96454 1.33987 0.72514
282 2 6.22808 -0.0168944 1.14781
283 2 5.28424 6.95392 7.95734
284 2 5.69738 8.44349 7.79401
285 2 4.59695 2.96295 -0.156096
286 2 4.05776 3.8329 1.0606
287 2 14.2623 2.20361 0.861912
288 2 14.7961 2.02476 15.1013
289 2 7.90736 0.984376 2.41964
290 2 8.42535 2.08554 3.23522
291 2 9.33834 3.30929 9.83257
292 2 10.1754 1.88055 10.1119
293 2 1.75381 4.52695 9.90946
294 2 1.11552 4.78978 8.54253
295 2 12.2645 0.0873025 4.07993
296 2 12.0334 14.6435 5.15054
297 2 9.97133 5.30379 5.02216
298 2 9.51596 4.30903 3.95105
299 2 9.11176 6.41377 14.7882
300 2 7.57568 6.54 14.599
301 2 2.07189 2.92609 11.9449
302 2 2.69894 1.52435 11.845
303 2 10.8501 14.3815 10.4642
304 2 10.5118 -0.206863 11.478
305 2 0.274248 12.7719 0.61942
306 2 0.108425 11.2293 1.22179
307 2 9.70727 2.84376 13.3266
308 2 10.3129 3.49932 12.1129
309 2 7.16744 3.93944 3.6373
310 2 7.68964 3.77425 2.12389
311 2 2.7812 12.2345 3.34142
312 2 4.17512 12.108 2.65722
313 2 13.4252 2.63657 7.76521
314 2 14.4885 3.85196 7.85505
315 2 1.16553 7.50623 0.684607
316 2 1.80702 6.9489 2.01705
317 2 14.4305 9.58843 13.243
318 2 13.0187 10.0336 13.4694
319 2 5.70123 2.57075 8.68482
320 2 6.80813 3.05178 9.52933
321 2 5.35787 4.80808 5.12533
322 2 5.96938 3.53575 5.71789
323 2 13.0854 2.74416 13.3668
324 2 13.871 1.59988 12.7008
325 2 8.54415 7.16809 5.28465
326 2 9.76316 8.11779 5.62097
327 2 3.5805 7.58031 10.0651
328 2 3.76188 9.05652 10.3377
329 2 4.55808 11.8882 11.3243
330 2 3.56374 12.075 12.5347
331 2 0.334551 11.7965 12.6005
332 2 0.24849 12.8839 13.5924
333 2 6.35726 8.22802 5.65351
334 2 6.38531 8.12785 4.02112
335 2 10.214 9.5859 10.0692
336 2 10.6644 8.57403 11.1276
337 2 8.95214 14.8857 9.64428
338 2 7.3584 14.7538 9.70982
339 2 0.591563 15.0693 0.0182509
340 2 1.70203 14.3696 14.7724
341 2 6.4741 3.89198 0.306924
342 2 7.8908 4.74294 0.474307
343 2 13.7745 5.25403 11.174
344 2 12.6407 6.3597 11.1641
345 2 6.61181 10.3071 13.1711
346 2 7.38294 10.2018 14.4287
347 2 5.92965 6.53312 13.3142
348 2 6.65131 8.00804 13.4902
349 2 4.1508 10.9057 6.58172
350 2 3.72612 9.43762 6.27968
351 2 0.960879 1.05271 5.33877
352 2 1.48012 2.49213 5.40543
353 2 8.71011 13.4532 1.93204
354 2 8.99593 13.78 0.520382
355 2 3.28533 0.709593 5.89467
356 2 4.52263 -0.105961 5.1872
357 2 10.8957 8.12501 1.5533
358 2 9.392 8.09909 2.00114
359 2 2.85608 14.8006 10.6062
360 2 3.90293 13.7417 11.0449
361 2 6.48734 12.6937 1.54518
362 2 7.04029 11.6822 2.67807
363 2 2.24681 10.7375 14.3261
364 2 3.668 10.6767 14.8241
365 2 12.3482 3.69431 0.972113
366 2 13.2921 3.83378 2.19605
367 2 12.5073 12.8061 9.60602
368 2 12.5354 13.311 11.1419
369 2 13.9506 6.55755 12.8999
370 2 13.4462 7.1125 14.3857
371 2 11.8334 1.45816 2.05064
372 2 10.4376 0.894116 2.52875
373 2 0.844146 1.54638 0.605455
374 2 2.39804 1.38307 0.478242
375 2 7.77884 0.12269 7.66547
376 2 8.60235 1.23456 6.91956
377 2 12.4122 11.5105 0.551261
378 2 13.9301 11.2794 0.187093
379 2 13.8259 3.47873 9.96028
380 2 13.5184 3.1733 11.5056
381 2 12.9666 3.11167 5.2382
382 2 12.0906 4.05916 4.29522
383 2 5.48443 10.7696 1.07083
384 2 5.47524 10.05 -0.286949
ITEM: TIMESTEP
200
ITEM: NUMBER OF ATOMS
384
ITEM: BOX BOUNDS pp pp pp
-2.2989006347002316e-01 1.5229890063470055e+01
-2.0075667969305755e-01 1.5200756679693095e+01
-2.0224793522469486e-01 1.5202247935224751e+01
ITEM: ATOMS id type x y z
1 1 4.48953 5.58645 13.122
2 1 14.479 3.85051 13.9717
3 1 7.66513 10.6738 3.7333
4 1 1.63496 3.86655 4.62583
5 1 13.7378 10.0108 10.2798
6 1 9.91438 0.122088 -0.132883
7 1 13.2744 9.60411 6.08248
8 1 3.4923 13.3528 7.64267
9 1 3.26963 6.49834 2.78873
10 1 5.39876 8.01875 2.48653
11 1 13.7884 6.51472 1.89011
12 1 0.562573 10.0897 13.64
13 1 14.8894 5.37433 4.82867
14 1 9.85514 5.99859 7.83907
15 1 12.1364 6.97344 3.98702
16 1 9.97866 2.85953 6.81969
17 1 4.62794 3.88301 11.2474
18 1 7.33999 10.4282 11.1189
19 1 8.34245 1.97478 14.4101
20 1 5.81022 13.7671 0.482251
21 1 -0.0861888 13.1755 9.87533
22 1 12.5107 1.99243 5.99909
23 1 10.7848 6.99042 14.0652
24 1 1.97916 7.75293 6.17823
25 1 10.5432 9.22759 5.74404
26 1 15.1456 8.11303 4.61962
27 1 1.7417 11.3909 4.42609
28 1 6.01804 0.378871 10.6338
29 1 12.214 8.02783 0.238799
30 1 2.17384 6.52484 12.3218
31 1 3.61703 5.60984 5.37645
32 1 7.74598 12.028 7.84486
33 1 2.92497 3.65612 2.13441
34 1 2.93213 13.2998 0.16978
35 1 -0.182392 5.48702 7.58226
36 1 10.7609 14.6278 7.43305
37 1 1.30749 14.5596 2.51916
38 1 5.9924 0.432691 13.4309
39 1 0.560599 9.94916 2.69244
40 1 12.2991 13.0103 12.6782
41 1 0.999036 12.1322 7.97239
42 1 13.7578 14.2265 0.198012
43 1 -0.0769659 15.0458 4.65761
44 1 8.5747 12.7435 11.7526
45 1 12.4345 6.34305 6.66335
46 1 9.71185 10.341 8.18526
47 1 10.4834 10.906 12.9007
48 1 8.82658 12.4157 5.29471
49 1 3.81159 1.63228 14.3302
50 1 6.45141 13.173 13.4676
51 1 3.97717 5.93222 9.11825
52 1 11.2125 -0.0524431 12.9264
53 1 7.64622 14.1633 3.4663
54 1 4.53775 2.12296 3.34227
55 1 12.2025 11.2196 8.44717
56 1 8.79951 10.2563 -0.169683
57 1 1.75534 1.77063 8.3769
58 1 8.42495 5.57145 11.5781
59 1 1.23719 9.05664 8.34748
60 1 10.5561 10.4874 3.32407
61 1 11.7035 4.31322 14.8033
62 1 10.6156 6.86964 10.4858
63 1 4.9478 10.0795 9.93117
64 1 7.92268 8.0495 1.32614
65 1 14.326 7.78126 8.52536
66 1 4.94066 14.7342 3.69501
67 1 5.70157 1.87696 6.76359
68 1 1.44477 0.407022 10.5036
69 1 11.4454 12.4594 1.43757
70 1 8.19241 4.23402 9.30663
71 1 -0.225586 12.6204 5.6782
72 1 5.02775 11.2498 7.62202
73 1 0.79695 7.48781 14.3513
74 1 1.02513 4.2768 11.8157
75 1 -0.117969 0.713516 12.8221
76 1 12.5121 12.4015 6.12762
77 1 6.40651 0.954368 1.31283
78 1 5.59871 8.01075 7.15993
79 1 4.62382 4.09479 -0.135612
80 1 14.6989 1.64359 0.231321
81 1 8.6172 1.18548 2.76423
82 1 10.1388 2.64879 10.2759
83 1 1.75916 4.32383 8.76806
84 1 12.67 15.0541 4.13683
85 1 10.2276 4.80588 4.99441
86 1 8.37278 6.17518 14.9722
87 1 2.68558 2.32282 12.0766
88 1 9.95555 14.6786 10.7428
89 1 -0.157869 11.2282 0.563724
90 1 9.66356 3.61537 12.7639
91 1 8.0057 3.86489 3.56448
92 1 3.25765 12.6041 2.71733
93 1 13.468 3.48469 8.13399
94 1 0.838233 7.54067 1.81056
95 1 13.3274 9.79065 12.7766
96 1 6.05548 2.70351 9.19666
97 1 5.79599 3.79342 5.02355
98 1 13 1.93205 12.7636
99 1 9.02701 7.09169 5.40773
100 1 2.98437 8.15012 10.2299
101 1 4.52895 12.0644 12.0348
102 1 0.500678 12.651 12.3147
103 1 6.79262 8.47296 4.72978
104 1 9.83449 9.55325 10.7778
105 1 7.84207 14.5565 9.03333
106 1 0.651717 14.3409 14.5131
107 1 7.46109 3.90695 0.718438
108 1 13.4646 6.69475 10.9996
109 1 6.76151 9.50457 13.6075
110 1 6.85797 6.91753 13.1183
111 1 3.55352 9.95963 5.70252
112 1 1.557 1.17394 5.73704
113 1 8.97696 13.2132 0.940575
114 1 3.87789 0.0573237 6.12668
115 1 10.4622 8.11686 2.25861
116 1 3.9023 14.1934 10.3661
117 1 5.67707 11.5283 2.20503
118 1 3.12545 11.0691 14.0519
119 1 12.4811 2.91753 1.5722
120 1 12.5576 13.4395 9.97545
121 1 13.8042 6.41683 13.7655
122 1 11.2758 0.77671 2.13591
123 1 1.78414 1.29174 1.11044
124 1 8.04369 0.791327 6.59082
125 1 12.6676 10.539 -0.185148
126 1 13.96 3.91388 10.7447
127 1 12.6222 4.05341 4.13433
128 1 4.92017 9.69476 0.323378
129 2 4.83127 4.91514 12.1619
130 2 4.64001 5.18671 14.0349
131 2 14.2191 4.79885 13.9271
132 2 -0.211028 3.65142 13.1645
133 2 7.18279 9.70298 4.06672
134 2 8.57289 10.4031 3.57735
135 2 0.741424 4.24291 4.38946
136 2 1.96806 3.72258 3.78818
137 2 14.4688 10.5843 10.2825
138 2 13.6266 9.80066 11.2263
139 2 10.4644 0.383403 0.638829
140 2 9.25581 0.829444 15.0068
141 2 13.6259 9.37401 6.90887
142 2 13.092 10.6049 6.14535
143 2 3.65059 13.9022 8.57684
144 2 3.72395 14.1404 7.14218
145 2 3.28836 5.77525 2.08232
146 2 3.32231 6.10735 3.6294
147 2 5.12813 8.64418 1.70839
148 2 4.7769 7.35644 2.54328
149 2 13.1367 6.6686 2.66808
150 2 14.5925 7.17144 1.91693
151 2 0.85753 9.19662 13.6483
152 2 0.582181 10.5782 14.6584
153 2 14.267 4.85128 4.23535
154 2 14.9376 6.3167 4.71538
155 2 10.8403 6.20867 7.4205
156 2 9.14948 6.22814 7.07662
157 2 12.3552 7.01836 5.04124
158 2 11.3146 7.59426 3.55498
159 2 9.97984 3.02056 7.73003
160 2 9.98084 3.72193 6.5107
161 2 3.8603 3.19506 11.668
162 2 5.22901 3.46196 10.7916
163 2 8.18082 9.8953 11.0458
164 2 7.64469 11.4344 11.2981
165 2 8.08582 2.76947 15.0278
166 2 7.56301 2.013 13.837
167 2 6.36507 13.1565 15.1175
168 2 4.91459 13.5833 0.297384
169 2 14.4658 13.2964 9.79659
170 2 0.146307 12.912 11.0038
171 2 11.4755 2.06982 6.02
172 2 12.6997 1.19698 5.36817
173 2 10.7845 7.3412 13.2678
174 2 11.3552 7.46864 14.858
175 2 0.93458 7.98014 5.59345
176 2 1.62447 8.18023 7.02484
177 2 11.4471 9.15569 5.81251
178 2 10.5344 10.0109 4.9221
179 2 14.3494 8.62703 5.06686
180 2 -0.0186248 8.60226 3.90324
181 2 0.980373 11.7419 4.95655
182 2 2.52517 10.9367 4.86221
183 2 6.07401 1.14217 9.89249
184 2 5.20104 -0.14998 10.6217
185 2 12.7986 8.87105 -0.0554735
186 2 13.01 7.4957 0.671213
187 2 2.35121 7.2735 11.5655
188 2 3.0945 6.49006 12.6239
189 2 3.09209 6.42315 5.74776
190 2 2.84223 4.95359 5.05955
191 2 7.81963 12.9688 8.24913
192 2 8.16646 12.2011 7.04601
193 2 2.26769 3.01161 1.74162
194 2 3.62535 3.38626 2.54316
195 2 2.87085 12.58 15.1039
196 2 2.90255 13.2072 1.09882
197 2 15.1098 5.34124 6.58283
198 2 14.9898 6.41448 7.83372
199 2 11.4172 -0.100509 7.56218
200 2 11.248 13.8506 7.03629
201 2 2.12363 14.1785 2.71664
202 2 1.56045 0.057246 2.13909
203 2 6.03718 14.8423 13.4419
204 2 5.81871 0.533764 12.5095
205 2 1.26113 9.32239 2.24717
206 2 1.04951 10.4768 3.38721
207 2 11.6693 13.8328 12.6891
208 2 11.6218 12.3495 12.8608
209 2 1.93642 12.7434 8.00207
210 2 0.602939 12.5813 8.65153
211 2 13.7604 15.0719 0.184869
212 2 13.3493 13.7809 14.7535
213 2 14.3765 15.0619 4.34575
214 2 0.585093 14.8648 3.85457
215 2 9.07374 13.4667 11.2407
216 2 9.3326 12.266 12.2437
217 2 13.0034 6.87798 7.36473
218 2 12.8244 5.4842 6.64809
219 2 8.73713 10.6928 8.18264
220 2 9.85454 9.82103 7.17087
221 2 10.3601 10.4294 12.0523
222 2 9.96209 10.6378 13.7697
223 2 9.8583 12.2691 5.30812
224 2 8.41415 11.7018 4.82191
225 2 4.5687 1.18009 14.089
226 2 3.34503 1.8051 13.4794
227 2 7.32323 12.9592 12.9907
228 2 5.73705 12.614 13.3717
229 2 3.13848 5.29568 8.94213
230 2 4.33881 5.52613 9.84514
231 2 10.869 0.0964859 13.8476
232 2 12.0381 0.686647 12.9801
233 2 7.95966 15.0392 3.39731
234 2 8.13954 13.4596 4.13038
235 2 5.11991 1.3538 3.08358
236 2 5.10443 2.64585 4.16705
237 2 12.464 10.835 9.18439
238 2 11.4991 10.5275 8.34771
239 2 8.65622 9.45848 0.589181
240 2 8.69809 10.9945 0.281819
241 2 1.49185 1.45529 7.29369
242 2 1.73691 2.75377 8.60607
243 2 9.00748 5.01208 11.9819
244 2 8.14586 6.03795 12.2459
245 2 1.94007 8.852 9.14308
246 2 1.13037 10.121 8.30216
247 2 10.945 11.1149 2.80647
248 2 10.5211 9.7064 2.79812
249 2 11.1555 5.2006 15.0826
250 2 11.1537 3.93804 14.1562
251 2 10.6915 6.38363 9.65051
252 2 9.83671 6.37647 11.1591
253 2 5.89729 10.1156 10.3071
254 2 4.93619 10.6084 9.14506
255 2 7.89299 7.22845 0.897704
256 2 7.04474 8.05919 1.78026
257 2 13.9897 7.47817 9.49138
258 2 14.903 8.61858 8.70891
259 2 5.96983 14.4842 3.84996
260 2 4.68122 13.7743 3.54897
261 2 6.62784 1.53166 6.71093
262 2 5.10962 1.1556 6.72288
263 2 1.30927 0.83395 9.68237
264 2 0.971332 14.8876 10.4246
265 2 10.4827 12.8036 1.24524
266 2 12.2136 13.0684 1.70241
267 2 8.06745 4.69013 10.166
268 2 8.62013 4.761 8.50887
269 2 0.0133448 13.4428 5.19268
270 2 0.14841 12.4779 6.63282
271 2 5.82106 11.4845 7.57046
272 2 4.38097 12.1147 7.82353
273 2 0.0607069 7.01681 14.5772
274 2 1.24382 7.02984 13.6544
275 2 1.36409 5.38822 11.9989
276 2 0.0387003 4.33912 11.2309
277 2 0.479671 0.643982 11.9364
278 2 0.576324 0.565088 13.5015
279 2 13.3755 12.4752 5.96335
280 2 12.4945 12.045 7.23365
281 2 6.33191 1.21142 0.345978
282 2 6.14337 -0.0646556 1.13799
283 2 5.23489 7.29973 7.56699
284 2 5.33621 8.71704 7.65878
285 2 4.45638 3.14672 14.835
286 2 4.18681 3.95863 0.603802
287 2 14.0793 2.18782 0.817105
288 2 14.7066 2.31063 14.948
289 2 7.9171 1.08596 2.27794
290 2 8.44935 2.00261 3.31812
291 2 9.43622 3.23545 9.78013
292 2 10.4349 1.73762 9.92487
293 2 1.40056 4.26949 9.72383
294 2 1.08485 4.98413 8.38346
295 2 11.9393 0.0296069 3.47367
296 2 12.495 14.1178 4.43661
297 2 10.0483 5.74988 4.82957
298 2 9.45313 4.46522 4.28543
299 2 9.20666 6.77269 14.5164
300 2 7.69104 6.21781 14.3585
301 2 2.0691 3.12977 12.0736
302 2 2.40651 1.72901 11.4572
303 2 10.7375 14.4635 10.111
304 2 10.3028 15.1957 11.4514
305 2 15.0919 12.2886 0.645127
306 2 0.153311 10.8871 1.4713
307 2 9.21168 2.82435 13.3882
308 2 10.3256 3.20877 12.1061
309 2 7.18591 3.94489 4.19581
310 2 7.78564 4.20133 2.70014
311 2 2.73843 12.2009 3.33432
312 2 4.079 11.9876 2.83212
313 2 13.3608 2.78612 7.4436
314 2 14.225 3.96394 7.80333
315 2 0.77362 7.32737 0.842102
316 2 1.66124 7.06242 2.06961
317 2 14.1921 9.98607 13.0494
318 2 12.854 10.3336 13.4703
319 2 5.8793 2.65188 8.2617
320 2 6.89792 3.056 9.17687
321 2 5.20847 4.60158 5.11341
322 2 5.57516 3.16139 5.77773
323 2 13.2303 2.64635 13.52
324 2 13.9638 1.4719 12.7082
325 2 8.08296 7.2665 5.04707
326 2 9.37623 8.01743 5.61458
327 2 3.44284 7.38298 9.80373
328 2 3.7162 8.80858 10.3935
329 2 4.75618 11.3895 11.318
330 2 4.00174 11.6007 12.7979
331 2 0.178678 11.714 12.5691
332 2 0.49305 13.2308 12.9927
333 2 6.19748 8.48312 5.65199
334 2 6.19033 8.17942 4.02276
335 2 9.76419 9.98389 9.97715
336 2 10.1706 8.60127 10.6791
337 2 8.75051 14.7634 9.32926
338 2 7.28446 14.8659 9.81969
339 2 -0.179582 14.3788 15.1772
340 2 1.42425 14.0745 14.9448
341 2 6.61967 4.2244 0.685943
342 2 7.82364 4.72966 0.528625
343 2 13.2432 5.73339 10.6895
344 2 12.5707 6.90835 10.8792
345 2 6.83098 9.99878 12.6714
346 2 7.64816 9.59518 13.9868
347 2 6.03748 6.34375 13.0946
348 2 6.78651 7.82378 13.4718
349 2 3.8764 10.3833 6.43908
350 2 3.10462 8.94376 5.89792
351 2 0.925544 0.567156 5.40856
352 2 1.52892 2.01194 5.20845
353 2 8.63513 13.2699 1.7391
354 2 9.45378 14.2317 0.609726
355 2 3.07637 0.521533 5.95896
356 2 4.04419 15.1298 5.20447
357 2 10.9433 7.94975 1.41642
358 2 9.54423 7.9255 2.04195
359 2 3.02701 14.7195 10.4018
360 2 3.81604 13.5302 11.1384
361 2 5.94647 12.5467 1.88044
362 2 6.45139 11.2485 3.09377
363 2 2.35708 10.7487 13.8352
364 2 3.69913 10.5075 14.6395
365 2 12.0447 3.5516 0.849684
366 2 12.4718 3.52195 2.33676
367 2 12.419 12.5885 9.36704
368 2 12.7025 13.1496 11.0673
369 2 13.942 6.45341 12.8161
370 2 12.9805 6.49168 14.1033
371 2 11.8355 1.5601 1.95318
372 2 10.3169 1.05924 2.34424
373 2 0.911908 1.656 0.605585
374 2 2.28687 1.19729 0.294492
375 2 8.18778 0.119769 7.41761
376 2 8.67885 1.42288 6.71645
377 2 12.2087 11.2569 0.357518
378 2 13.521 10.7727 0.0486935
379 2 14.0775 3.89192 9.8148
380 2 13.5937 3.11952 11.089
381 2 12.599 3.28511 4.86703
382 2 11.8379 4.61075 4.55463
383 2 5.15591 10.6041 0.719286
384 2 5.43363 9.41467 14.992
ITEM: TIMESTEP
400
ITEM: NUMBER OF ATOMS
384
ITEM: BOX BOUNDS pp pp pp
-1.7792508045011868e-01 1.5177925080450148e+01
-7.2874872329593998e-02 1.5072874872329617e+01
-1.0143935956222627e-01 1.5101439359562306e+01
ITEM: ATOMS id type x y z
1 1 4.45342 5.48423 12.7192
2 1 14.8165 3.58869 14.062
3 1 7.20444 10.5155 3.55853
4 1 1.80617 3.397 4.3418
5 1 13.7286 9.72751 10.0847
6 1 9.41813 -0.06825 14.9962
7 1 13.4111 9.22673 6.41547
8 1 3.46305 13.0487 7.956
9 1 3.43974 6.04359 2.50085
10 1 5.62076 7.53376 2.03307
11 1 14.0699 6.86634 2.04691
12 1 0.663718 10.0614 13.6839
13 1 -0.0606753 5.30992 4.72719
14 1 9.59719 6.32398 8.18249
15 1 12.2651 6.54812 4.36379
16 1 10.2471 2.81194 6.78896
17 1 4.5099 4.00113 10.6673
18 1 7.05131 10.434 11.0253
19 1 7.95852 2.01238 14.4264
20 1 5.81483 13.4108 0.572725
21 1 -0.0308354 13.2185 9.76663
22 1 12.0808 1.94429 5.25573
23 1 10.7579 6.44654 13.5092
24 1 1.91281 7.78901 6.25783
25 1 10.6207 9.1001 5.81063
26 1 15.0143 7.97764 4.7742
27 1 1.66141 11.1317 4.38516
28 1 5.94619 0.583969 10.5643
29 1 12.114 7.73995 0.197649
30 1 2.00975 6.62972 12.0394
31 1 3.41721 5.60995 5.17653
32 1 7.65406 12.0167 7.82233
33 1 3.24589 3.49733 1.75467
34 1 3.15081 13.0361 0.216126
35 1 -0.165612 5.00226 7.28355
36 1 10.7368 14.5445 7.42037
37 1 1.1879 14.335 2.02752
38 1 6.01667 0.772197 13.21
39 1 0.410551 9.70716 2.62745
40 1 12.288 13.1139 12.7892
41 1 1.23684 11.8386 8.15437
42 1 13.2959 13.6597 -0.028724
43 1 -0.141043 14.8918 4.33564
44 1 8.75224 12.7727 11.8394
45 1 12.089 6.0103 7.13759
46 1 9.88112 10.253 7.9616
47 1 10.3746 10.7801 12.6802
48 1 8.49625 12.1075 5.39371
49 1 3.77716 1.67162 14.1425
50 1 6.3517 13.2693 13.1799
51 1 4.08244 6.04406 8.57546
52 1 11.171 0.267611 12.5091
53 1 7.37831 13.8326 3.60495
54 1 4.54011 1.96988 3.44057
55 1 12.1673 11.3434 8.73469
56 1 9.03604 10.1473 -0.0549429
57 1 2.22184 1.51143 8.33242
58 1 8.72733 5.25647 11.6223
59 1 0.937797 9.15473 8.47712
60 1 10.0754 10.3875 3.51009
61 1 11.8403 3.94064 14.0762
62 1 10.3112 6.9254 10.5612
63 1 4.7789 9.90412 9.59062
64 1 8.24394 7.89079 1.53598
65 1 14.3248 7.6005 7.94355
66 1 4.81222 14.5007 3.64084
67 1 5.75765 1.61199 6.566
68 1 1.64224 0.227192 10.4139
69 1 11.3972 12.5322 1.74397
70 1 8.38516 3.93952 9.18214
71 1 -0.133402 12.4925 5.6896
72 1 5.24986 11.0286 7.2755
73 1 0.728874 7.53431 14.2364
74 1 0.587262 4.28218 11.6145
75 1 -0.0452436 1.10235 12.4852
76 1 12.4045 12.4085 6.07828
77 1 6.32244 0.75481 1.41697
78 1 5.83345 7.95267 7.39097
79 1 4.89344 4.09033 14.945
80 1 14.4558 1.22943 0.418445
81 1 8.35422 1.03446 2.81276
82 1 10.1174 2.13264 10.3937
83 1 1.83364 4.22814 8.9472
84 1 12.3829 14.7799 4.00632
85 1 9.90489 4.66247 5.03104
86 1 8.22763 5.76111 14.9509
87 1 2.64256 2.30145 11.5922
88 1 10.2673 14.5789 10.2959
89 1 14.7156 11.1819 0.791975
90 1 9.65984 3.0881 12.7377
91 1 7.73483 3.53187 3.66269
92 1 3.3095 12.4617 2.93664
93 1 13.0996 3.62755 7.75354
94 1 1.35728 7.64174 1.58555
95 1 13.3212 9.47846 12.6656
96 1 6.13554 2.85005 8.89659
97 1 5.83845 3.98256 5.31809
98 1 12.7861 2.30671 12.3446
99 1 8.72342 7.15645 5.86146
100 1 2.83915 7.9789 9.88731
101 1 4.34415 11.7794 11.7621
102 1 1.12127 12.0948 11.7927
103 1 6.43263 8.29488 4.72092
104 1 9.31601 9.39072 10.5532
105 1 7.8931 14.5334 8.76072
106 1 0.852392 13.9993 14.0497
107 1 7.08052 3.84972 1.21023
108 1 12.8937 6.6806 10.5866
109 1 6.959 9.40775 13.5107
110 1 6.83641 6.79155 12.9605
111 1 3.70791 9.72342 5.31725
112 1 1.48311 1.14894 5.75921
113 1 8.7203 12.8107 1.08212
114 1 3.66207 14.8519 6.1459
115 1 10.6732 8.01744 2.64946
116 1 3.82328 14.1309 10.228
117 1 5.3902 11.1098 1.91396
118 1 3.15242 10.9108 14.0754
119 1 12.3939 2.83297 1.33092
120 1 12.6637 13.4668 10.0528
121 1 13.8518 6.59992 13.3199
122 1 10.9334 0.726574 2.19675
123 1 1.84593 1.56389 0.956029
124 1 8.30222 0.828832 6.20124
125 1 12.3275 10.2825 -0.011258
126 1 13.431 4.15549 10.6483
127 1 13.0957 4.14174 3.82662
128 1 4.67088 9.33444 0.0394113
129 2 4.52244 4.76202 12.0593
130 2 4.63453 4.8214 13.7147
131 2 14.3544 4.18775 14.468
132 2 0.275613 3.83038 13.3562
133 2 6.90586 9.68441 4.02027
134 2 8.33223 10.4496 3.33185
135 2 1.04871 4.17609 4.37533
136 2 2.06518 3.38491 3.49429
137 2 14.6136 9.80543 9.86879
138 2 13.4082 9.75678 11.0992
139 2 9.62748 0.209108 0.622352
140 2 8.70799 0.678174 14.803
141 2 13.7291 8.86941 7.25171
142 2 13.5285 10.2545 6.4624
143 2 3.58516 13.7447 8.72002
144 2 3.42564 13.6942 7.15957
145 2 3.28201 5.19369 2.20591
146 2 3.25845 5.84737 3.53821
147 2 5.28147 8.14476 1.35794
148 2 4.94943 6.98223 2.28184
149 2 13.9461 7.06135 2.90397
150 2 14.9914 7.07084 1.95605
151 2 0.735863 8.91896 13.9712
152 2 0.182521 10.4681 14.4024
153 2 14.3408 4.8336 4.30235
154 2 -0.176111 6.29067 4.59227
155 2 10.4319 6.17673 7.70142
156 2 9.00933 6.90387 7.48195
157 2 12.1041 6.59503 5.32522
158 2 11.5171 6.94 3.88043
159 2 10.2725 3.32533 7.74026
160 2 10.2575 3.61203 6.1022
161 2 3.84303 3.21881 10.8597
162 2 5.12035 3.64668 9.92675
163 2 8.00244 9.74812 10.9482
164 2 7.48987 11.4481 11.0614
165 2 7.69621 2.58332 -0.0899615
166 2 7.09232 1.4483 14.1529
167 2 6.20655 13.2984 14.7762
168 2 4.8737 13.0637 0.479792
169 2 14.2572 13.3505 9.62192
170 2 0.177387 12.9508 10.6538
171 2 11.4596 1.98242 5.97044
172 2 12.3403 1.12677 4.96425
173 2 10.9535 6.37135 12.5017
174 2 11.4793 7.05952 13.8553
175 2 1.03676 7.94384 5.79422
176 2 1.66632 8.34211 7.05491
177 2 11.6646 9.41801 5.88188
178 2 10.4058 9.57771 4.90722
179 2 14.3956 8.53273 5.40367
180 2 -0.0680084 8.69433 4.03209
181 2 1.26388 11.8132 4.99146
182 2 2.28233 10.5086 5.08488
183 2 6.04666 1.28344 9.86611
184 2 5.24998 15.0032 10.468
185 2 12.2179 8.84506 0.17084
186 2 12.7325 7.29909 0.694288
187 2 2.37084 7.18228 11.3552
188 2 2.91466 6.05585 12.2369
189 2 2.94622 6.31912 5.50529
190 2 2.72534 4.91862 5.06659
191 2 7.58165 13.0431 8.206
192 2 8.05411 12.2064 6.83748
193 2 2.42025 2.74919 1.55304
194 2 3.83482 2.85736 2.25279
195 2 3.15087 12.0312 14.9409
196 2 3.15369 12.7898 1.12667
197 2 0.170571 4.95426 6.22068
198 2 14.8978 5.92104 7.55958
199 2 11.1757 -0.0666011 7.99535
200 2 11.6645 14.4717 6.74202
201 2 1.93224 14.0323 2.39718
202 2 1.48827 0.229905 1.82118
203 2 6.31253 15.0377 13.2502
204 2 6.00831 0.814032 12.1154
205 2 1.13914 9.04219 2.45381
206 2 0.996386 10.2428 3.35283
207 2 11.7993 13.9993 12.7679
208 2 11.4632 12.3532 12.6533
209 2 2.12502 12.0915 8.00497
210 2 0.81684 12.2435 8.86826
211 2 13.8058 14.5454 -0.058296
212 2 12.7369 13.6521 14.4116
213 2 14.3796 14.9836 4.16323
214 2 0.289745 14.661 3.4939
215 2 9.20531 13.364 11.2594
216 2 9.42348 12.0529 12.2082
217 2 12.6521 6.54484 7.9084