ITEM: TIMESTEP
0
ITEM: NUMBER OF ATOMS
384
ITEM: BOX BOUNDS pp pp pp
-3.1180958401302572e-01 1.5311809584013066e+01
-3.1180958401302572e-01 1.5311809584013066e+01
-3.1180958401302572e-01 1.5311809584013066e+01
ITEM: ATOMS id type x y z
1 1 4.57679 5.50123 13.6944
2 1 14.8875 3.66367 14.1079
3 1 8.20115 10.8513 3.91518
4 1 1.55859 4.11103 4.68534
5 1 14.0046 11.0534 10.4291
6 1 10.1562 -0.0244194 -0.0179537
7 1 13.1461 9.78511 5.92123
8 1 3.48566 13.6848 7.87681
9 1 3.32305 6.30373 3.20589
10 1 5.30735 8.37688 2.36991
11 1 13.7801 6.32188 1.70807
12 1 0.692367 10.1945 14.1186
13 1 15.0627 5.43363 4.6639
14 1 9.98456 5.97612 7.92121
15 1 12.4056 7.19481 3.96576
16 1 9.83562 2.64919 6.79506
17 1 4.60459 4.17249 11.4106
18 1 7.55062 10.3381 11.1669
19 1 8.27543 1.89543 14.4455
20 1 5.83253 14.0038 0.549654
21 1 -0.277952 13.5963 10.2649
22 1 12.6457 2.09652 6.28487
23 1 10.7129 7.40871 14.2399
24 1 2.2119 7.88472 6.40809
25 1 10.4542 9.69036 5.97773
26 1 -0.282536 8.22967 4.81222
27 1 1.6652 11.2607 4.20606
28 1 6.17365 -0.094545 10.725
29 1 12.1932 8.4542 0.381712
30 1 2.29814 6.67565 12.652
31 1 3.74006 5.65533 5.77839
32 1 7.64075 12.3667 7.75101
33 1 2.57949 3.81144 2.08856
34 1 3.31976 13.3432 0.0677147
35 1 -0.0967938 5.37115 7.46928
36 1 11.1426 14.5448 7.59235
37 1 1.26174 14.8074 2.57217
38 1 6.41618 0.335516 13.3898
39 1 0.207637 9.92258 2.18818
40 1 12.6731 13.1901 12.8323
41 1 1.29363 11.9761 7.9846
42 1 13.2286 14.8362 0.439531
43 1 -0.123887 15.1905 5.01064
44 1 8.80795 12.7708 12.0788
45 1 12.4172 6.75949 6.79319
46 1 9.49869 10.6014 8.40823
47 1 10.544 10.9934 13.3575
48 1 8.99001 12.8372 5.44675
49 1 4.04829 1.51716 14.6149
50 1 6.69928 13.1999 13.7041
51 1 4.43379 6.10378 9.26553
52 1 11.4216 -0.0969869 13.0672
53 1 8.10878 14.4288 3.40524
54 1 4.3962 2.37166 3.28729
55 1 12.1316 11.4523 8.45349
56 1 8.7458 10.8517 -0.213292
57 1 1.53862 1.7361 8.48855
58 1 8.69585 5.89847 11.616
59 1 1.22107 9.19196 8.49846
60 1 10.635 10.5731 3.14594
61 1 11.4957 4.51089 15.2148
62 1 10.9209 6.7156 10.446
63 1 4.94638 10.4223 10.3546
64 1 7.94749 8.55464 1.09697
65 1 14.5919 7.80968 8.4877
66 1 5.26248 14.7619 3.62401
67 1 5.62202 2.26942 6.97039
68 1 1.29568 -0.0251437 10.348
69 1 11.6689 12.7598 1.5126
70 1 8.10674 4.34492 9.29769
71 1 15.2574 12.5827 5.71394
72 1 5.13758 11.4238 7.95676
73 1 0.807368 7.59384 14.5622
74 1 1.07308 4.35508 11.6836
75 1 -0.103901 0.899318 12.6958
76 1 12.4336 12.7126 5.99741
77 1 6.5124 0.898083 1.44852
78 1 5.22926 7.74021 7.34722
79 1 4.69818 3.85809 0.25821
80 1 14.6318 1.53081 0.260033
81 1 8.7843 1.26425 2.88569
82 1 10.1715 2.86217 10.2074
83 1 1.97586 4.56417 8.94346
84 1 12.6683 15.2799 4.82665
85 1 10.1623 4.44247 4.67024
86 1 8.26116 6.29332 15.2182
87 1 2.75694 2.33071 12.3211
88 1 10.1168 15.0402 10.6766
89 1 0.0214213 11.8389 0.424274
90 1 9.92368 3.73613 12.9889
91 1 7.93039 3.8304 3.09944
92 1 3.45334 12.7245 2.72154
93 1 13.7442 3.34545 8.32257
94 1 1.06378 7.50528 1.70711
95 1 13.5608 9.51663 12.896
96 1 6.16563 2.34739 9.6158
97 1 6.00658 4.12469 4.96415
98 1 13.0409 2.11594 12.6389
99 1 9.44842 7.22402 5.61094
100 1 3.08802 8.31472 10.412
101 1 4.27645 12.564 12.0172
102 1 0.247817 12.7339 12.6695
103 1 6.92237 8.32243 4.80264
104 1 10.2096 9.4039 11.0142
105 1 8.10819 14.6608 9.11245
106 1 0.724807 14.5893 14.8093
107 1 7.38606 3.87893 0.612739
108 1 13.59 6.17467 11.3541
109 1 6.57455 9.82429 14.0409
110 1 6.72525 7.05567 13.1783
111 1 3.66994 10.3273 5.96103
112 1 1.66543 1.60839 5.77048
113 1 9.05834 13.0173 1.11863
114 1 4.11235 0.213829 6.02437
115 1 10.3679 8.11545 2.36753
116 1 3.8208 14.5044 10.4834
117 1 6.27696 11.8524 2.07137
118 1 3.1417 11.1769 14.1451
119 1 12.971 3.21476 1.56998
120 1 12.4061 13.5738 10.1924
121 1 14.0948 6.56232 13.8874
122 1 11.4172 0.689063 2.37021
123 1 1.65778 1.52802 1.12949
124 1 7.74882 0.714644 6.86752
125 1 13.0368 10.8806 0.0461404
126 1 14.1536 3.59273 10.8941
127 1 12.9937 3.74289 4.44237
128 1 4.93288 10.2326 0.481908
129 2 4.52916 4.87676 12.9369
130 2 4.69703 5.06241 14.547
131 2 14.6886 4.58995 14.3163
132 2 0.0945933 3.63697 13.6264
133 2 7.74221 10.0755 4.24889
134 2 8.99342 10.7228 3.34745
135 2 0.788771 4.72927 4.53377
136 2 1.81069 3.95163 3.77685
137 2 14.4008 11.9252 10.4575
138 2 13.9069 10.7269 11.3647
139 2 10.6725 0.201823 0.765773
140 2 9.47367 0.652849 -0.0632908
141 2 13.5922 9.97565 6.76473
142 2 13.2152 10.5455 5.32572
143 2 3.67781 14.0964 8.7488
144 2 3.53939 14.3835 7.27865
145 2 3.09567 5.45978 2.78243
146 2 3.60518 6.19337 4.09913
147 2 5.08995 9.05489 1.76222
148 2 4.54185 7.79795 2.5309
149 2 13.4381 6.67871 2.59019
150 2 14.7355 6.25337 1.79471
151 2 0.77524 9.18308 14.2443
152 2 0.388115 10.6288 14.9234
153 2 14.1894 4.91997 4.56536
154 2 14.9228 6.4107 4.60147
155 2 10.8762 5.93786 7.61697
156 2 9.58879 6.53361 7.20672
157 2 12.1014 7.06547 4.8105
158 2 11.5829 7.27566 3.48345
159 2 9.70669 3.06202 7.62541
160 2 9.96186 3.35305 6.0781
161 2 3.89127 3.51534 11.556
162 2 5.31618 3.63484 11.0911
163 2 8.36256 9.80951 10.99
164 2 7.91946 11.2623 11.3115
165 2 7.80256 2.56448 14.9346
166 2 7.58248 1.21916 14.1315
167 2 6.10462 13.5421 -0.242407
168 2 4.85977 13.825 0.528199
169 2 14.4101 13.8153 10.1623
170 2 -0.0704958 13.4422 11.1966
171 2 11.7088 2.1063 6.54679
172 2 12.6961 1.18401 5.89058
173 2 10.9921 7.5299 13.3514
174 2 11.2636 8.01166 14.7268
175 2 1.57728 7.89927 5.7134
176 2 1.87051 8.36741 7.16573
177 2 11.4302 9.71213 6.20698
178 2 10.3486 10.1292 5.1128
179 2 14.4149 8.445 5.04536
180 2 0.00164071 8.8165 4.03796
181 2 1.02838 11.8189 4.67407
182 2 2.36173 10.8675 4.79517
183 2 6.32838 0.734699 10.265
184 2 5.21972 -0.301306 10.6492
185 2 12.568 9.37229 0.310345
186 2 12.8634 7.95827 0.824663
187 2 2.56428 7.41349 12.0109
188 2 3.14156 6.4193 13.0935
189 2 3.16723 6.41343 5.9805
190 2 3.10221 4.98312 5.63197
191 2 7.73547 13.1577 8.33842
192 2 8.06104 12.6116 6.87934
193 2 1.75422 3.38105 1.7562
194 2 3.25148 3.1727 2.47226
195 2 3.15037 12.6412 14.9757
196 2 3.16776 12.9566 0.983888
197 2 0.0720948 5.37286 6.52711
198 2 -0.245356 6.34024 7.61737
199 2 11.6512 14.8569 8.35832
200 2 11.802 13.9131 7.23812
201 2 2.07792 14.3411 2.56175
202 2 1.50629 0.044002 2.08403
203 2 6.3968 14.9261 13.4491
204 2 6.20534 0.425411 12.4267
205 2 0.660795 9.1318 1.85703
206 2 0.694078 10.391 2.87312
207 2 12.3708 14.0972 13.0916
208 2 12.1841 12.5232 13.366
209 2 2.09163 12.5603 7.87369
210 2 0.901668 12.2269 8.80367
211 2 13.6981 0.109016 0.335681
212 2 13.4443 14.3386 15.279
213 2 14.5376 15.2076 4.93591
214 2 0.228484 14.9795 4.13145
215 2 9.24837 13.4527 11.622
216 2 9.52013 12.2417 12.5392
217 2 12.875 7.30125 7.44426
218 2 13.1287 6.09272 6.70831
219 2 8.70364 11.2231 8.31889
220 2 9.67729 10.2938 7.51515
221 2 10.4955 10.2933 12.7118
222 2 10.0325 10.7711 14.1408
223 2 9.87115 13.0955 5.5737
224 2 8.95145 12.0108 4.93614
225 2 4.74251 0.928236 14.2575
226 2 3.48888 1.81195 13.8977
227 2 7.56401 13.1017 13.1985
228 2 6.02622 12.6782 13.2435
229 2 3.65548 5.64787 8.88705
230 2 4.53028 5.65688 10.1121
231 2 10.7483 -0.0654962 13.7661
232 2 11.7812 0.808853 13.0779
233 2 8.36482 -0.291862 3.46612
234 2 8.34757 14.0066 4.25098
235 2 5.1094 1.81781 2.95108
236 2 4.6411 2.96006 4.03817
237 2 12.5339 11.0417 9.22128
238 2 11.1841 11.2095 8.49369
239 2 8.60742 10.312 0.576946
240 2 8.69537 11.7883 0.0583599
241 2 1.42282 1.68337 7.50469
242 2 1.60998 2.65673 8.73322
243 2 8.87953 5.11923 12.1645
244 2 8.03029 6.40716 12.1505
245 2 1.95332 8.95172 9.16853
246 2 1.28006 10.1574 8.3047
247 2 11.2632 11.2403 2.79611
248 2 10.7957 9.70539 2.72449
249 2 11.5653 5.40273 -0.288322
250 2 11.1896 4.32648 14.2564
251 2 10.4204 6.65681 9.62663
252 2 10.2607 6.46258 11.0571
253 2 5.87632 10.1769 10.5904
254 2 4.94364 10.8143 9.46912
255 2 7.91802 7.6928 0.604333
256 2 7.17835 8.74025 1.63464
257 2 14.2008 7.92642 9.35992
258 2 -0.267797 8.44072 8.55252
259 2 6.16366 14.3915 3.8125
260 2 4.75946 14.0077 3.26281
261 2 6.35085 1.60272 6.90857
262 2 4.84301 1.75402 6.76165
263 2 1.34137 0.662419 9.62968
264 2 0.817817 14.7755 10.0578
265 2 10.8342 13.0339 1.10914
266 2 12.2496 13.5788 1.43103
267 2 7.99168 4.93257 10.0429
268 2 8.59208 4.87508 8.55834
269 2 -0.0863874 13.5026 5.64494
270 2 0.00602987 12.1735 6.56287
271 2 6.0476 11.6847 7.84187
272 2 4.65027 12.2574 7.8746
273 2 -0.10786 7.21382 14.4417
274 2 1.40859 7.20909 13.8607
275 2 1.10879 5.19843 12.1297
276 2 0.142322 4.18446 11.4107
277 2 0.192301 0.569522 11.8253
278 2 0.262058 0.216297 13.3227
279 2 13.325 12.966 5.76917
280 2 12.474 12.1815 6.79075
281 2 6.96454 1.33987 0.72514
282 2 6.22808 -0.0168944 1.14781
283 2 5.28424 6.95392 7.95734
284 2 5.69738 8.44349 7.79401
285 2 4.59695 2.96295 -0.156096
286 2 4.05776 3.8329 1.0606
287 2 14.2623 2.20361 0.861912
288 2 14.7961 2.02476 15.1013
289 2 7.90736 0.984376 2.41964
290 2 8.42535 2.08554 3.23522
291 2 9.33834 3.30929 9.83257
292 2 10.1754 1.88055 10.1119
293 2 1.75381 4.52695 9.90946
294 2 1.11552 4.78978 8.54253
295 2 12.2645 0.0873025 4.07993
296 2 12.0334 14.6435 5.15054
297 2 9.97133 5.30379 5.02216
298 2 9.51596 4.30903 3.95105
299 2 9.11176 6.41377 14.7882
300 2 7.57568 6.54 14.599
301 2 2.07189 2.92609 11.9449
302 2 2.69894 1.52435 11.845
303 2 10.8501 14.3815 10.4642
304 2 10.5118 -0.206863 11.478
305 2 0.274248 12.7719 0.61942
306 2 0.108425 11.2293 1.22179
307 2 9.70727 2.84376 13.3266
308 2 10.3129 3.49932 12.1129
309 2 7.16744 3.93944 3.6373
310 2 7.68964 3.77425 2.12389
311 2 2.7812 12.2345 3.34142
312 2 4.17512 12.108 2.65722
313 2 13.4252 2.63657 7.76521
314 2 14.4885 3.85196 7.85505
315 2 1.16553 7.50623 0.684607
316 2 1.80702 6.9489 2.01705
317 2 14.4305 9.58843 13.243
318 2 13.0187 10.0336 13.4694
319 2 5.70123 2.57075 8.68482
320 2 6.80813 3.05178 9.52933
321 2 5.35787 4.80808 5.12533
322 2 5.96938 3.53575 5.71789
323 2 13.0854 2.74416 13.3668
324 2 13.871 1.59988 12.7008
325 2 8.54415 7.16809 5.28465
326 2 9.76316 8.11779 5.62097
327 2 3.5805 7.58031 10.0651
328 2 3.76188 9.05652 10.3377
329 2 4.55808 11.8882 11.3243
330 2 3.56374 12.075 12.5347
331 2 0.334551 11.7965 12.6005
332 2 0.24849 12.8839 13.5924
333 2 6.35726 8.22802 5.65351
334 2 6.38531 8.12785 4.02112
335 2 10.214 9.5859 10.0692
336 2 10.6644 8.57403 11.1276
337 2 8.95214 14.8857 9.64428
338 2 7.3584 14.7538 9.70982
339 2 0.591563 15.0693 0.0182509
340 2 1.70203 14.3696 14.7724
341 2 6.4741 3.89198 0.306924
342 2 7.8908 4.74294 0.474307
343 2 13.7745 5.25403 11.174
344 2 12.6407 6.3597 11.1641
345 2 6.61181 10.3071 13.1711
346 2 7.38294 10.2018 14.4287
347 2 5.92965 6.53312 13.3142
348 2 6.65131 8.00804 13.4902
349 2 4.1508 10.9057 6.58172
350 2 3.72612 9.43762 6.27968
351 2 0.960879 1.05271 5.33877
352 2 1.48012 2.49213 5.40543
353 2 8.71011 13.4532 1.93204
354 2 8.99593 13.78 0.520382
355 2 3.28533 0.709593 5.89467
356 2 4.52263 -0.105961 5.1872
357 2 10.8957 8.12501 1.5533
358 2 9.392 8.09909 2.00114
359 2 2.85608 14.8006 10.6062
360 2 3.90293 13.7417 11.0449
361 2 6.48734 12.6937 1.54518
362 2 7.04029 11.6822 2.67807
363 2 2.24681 10.7375 14.3261
364 2 3.668 10.6767 14.8241
365 2 12.3482 3.69431 0.972113
366 2 13.2921 3.83378 2.19605
367 2 12.5073 12.8061 9.60602
368 2 12.5354 13.311 11.1419
369 2 13.9506 6.55755 12.8999
370 2 13.4462 7.1125 14.3857
371 2 11.8334 1.45816 2.05064
372 2 10.4376 0.894116 2.52875
373 2 0.844146 1.54638 0.605455
374 2 2.39804 1.38307 0.478242
375 2 7.77884 0.12269 7.66547
376 2 8.60235 1.23456 6.91956
377 2 12.4122 11.5105 0.551261
378 2 13.9301 11.2794 0.187093
379 2 13.8259 3.47873 9.96028
380 2 13.5184 3.1733 11.5056
381 2 12.9666 3.11167 5.2382
382 2 12.0906 4.05916 4.29522
383 2 5.48443 10.7696 1.07083
384 2 5.47524 10.05 -0.286949
ITEM: TIMESTEP
200
ITEM: NUMBER OF ATOMS
384
ITEM: BOX BOUNDS pp pp pp
-2.1868351273538700e-01 1.5218683512735430e+01
-2.1868351273538700e-01 1.5218683512735430e+01
-2.1868351273538700e-01 1.5218683512735430e+01
ITEM: ATOMS id type x y z
1 1 4.46581 5.52973 13.1559
2 1 14.4657 3.90106 13.8306
3 1 7.59459 10.7103 3.80384
4 1 1.73473 3.78151 4.5828
5 1 13.6817 10.1853 10.3251
6 1 9.97567 0.228422 -0.0715644
7 1 13.2977 9.64172 6.06191
8 1 3.34045 13.511 7.57448
9 1 3.18112 6.56294 2.84159
10 1 5.47493 7.91046 2.61604
11 1 13.7596 6.56695 1.87521
12 1 0.618266 10.0411 13.7883
13 1 14.9256 5.42359 4.87609
14 1 9.85982 5.91871 7.85041
15 1 12.2076 6.97185 4.03689
16 1 9.91851 2.75849 6.78504
17 1 4.69313 3.90151 11.2536
18 1 7.35299 10.3842 11.2301
19 1 8.36635 1.92141 14.3543
20 1 5.83319 13.8955 0.582708
21 1 -0.071563 13.3296 10.0351
22 1 12.5449 1.89906 6.26408
23 1 10.6722 7.13129 14.2106
24 1 1.96994 7.8363 6.32014
25 1 10.4337 9.19802 5.82739
26 1 15.0835 8.1868 4.73989
27 1 1.77145 11.4768 4.41441
28 1 5.92636 0.279548 10.5707
29 1 12.2122 8.03839 0.297656
30 1 2.23856 6.50091 12.296
31 1 3.53424 5.71713 5.34332
32 1 7.71035 11.9338 7.82327
33 1 3.19407 3.57371 2.20125
34 1 3.0647 13.2385 0.169782
35 1 -0.0445689 5.35118 7.58923
36 1 10.6717 14.5635 7.32969
37 1 1.20489 14.5227 2.20974
38 1 6.05498 0.442389 13.3307
39 1 0.47843 9.90676 2.858
40 1 12.2035 13.07 12.5989
41 1 0.920435 12.2778 8.00835
42 1 13.4908 14.3156 0.200853
43 1 -0.063344 14.9908 4.53565
44 1 8.5134 12.7726 11.7635
45 1 12.4685 6.36619 6.80074
46 1 9.685 10.3204 8.19591
47 1 10.3798 10.9775 12.8205
48 1 8.76506 12.4326 5.37841
49 1 3.90882 1.67754 14.211
50 1 6.44243 13.2213 13.4737
51 1 4.12571 5.90034 9.29289
52 1 11.1898 -0.0364414 13.0724
53 1 7.5746 14.2325 3.51417
54 1 4.69647 2.04465 3.50797
55 1 12.2241 11.2825 8.35053
56 1 8.86816 10.4515 -0.13356
57 1 1.72046 1.7378 8.30175
58 1 8.38953 5.53338 11.5663
59 1 1.15916 9.08727 8.48389
60 1 10.4047 10.4376 3.35927
61 1 11.6115 4.35909 14.7987
62 1 10.4719 6.8984 10.456
63 1 4.89841 10.2206 10.0991
64 1 7.95737 8.05045 1.32037
65 1 14.3005 7.56196 8.6091
66 1 4.89793 14.753 3.71079
67 1 5.77628 1.94486 6.81087
68 1 1.37131 0.428487 10.3431
69 1 11.5062 12.48 1.61036
70 1 8.32773 4.24925 9.28817
71 1 15.2043 12.6148 5.66549
72 1 4.96042 11.3056 7.60541
73 1 0.927539 7.47208 14.3269
74 1 1.07257 4.22578 11.8058
75 1 -0.0400775 0.593103 12.7656
76 1 12.407 12.5177 5.99131
77 1 6.20984 1.02898 1.44481
78 1 5.59663 7.9994 7.02077
79 1 4.63074 4.04581 -0.18408
80 1 14.5542 1.73517 0.359362
81 1 8.4928 1.27906 2.65027
82 1 10.143 2.57921 10.2508
83 1 1.87463 4.3269 8.88896
84 1 12.6463 15.0548 4.27238
85 1 10.2169 4.79119 4.92502
86 1 8.31767 6.30391 14.901
87 1 2.75512 2.21345 12.0076
88 1 10.0071 14.78 10.8086
89 1 -0.206862 11.2353 0.729126
90 1 9.71127 3.60414 12.7757
91 1 7.94078 3.84262 3.5257
92 1 3.34669 12.7074 2.74461
93 1 13.5097 3.52565 8.16835
94 1 0.750391 7.55284 1.74964
95 1 13.3689 9.98179 12.7977
96 1 6.17122 2.74201 9.27591
97 1 5.85099 3.844 5.11592
98 1 13.0144 1.85913 12.6945
99 1 8.99304 7.01625 5.41967
100 1 3.08556 8.17504 10.2577
101 1 4.38944 12.2618 12.0541
102 1 0.558746 12.6976 12.4275
103 1 6.82302 8.51463 4.71379
104 1 9.74519 9.51992 10.7782
105 1 7.85052 14.4856 9.00351
106 1 0.792043 14.3898 14.584
107 1 7.41977 3.92601 0.367943
108 1 13.3721 6.60565 10.842
109 1 6.68132 9.59948 13.6545
110 1 6.70683 6.92154 13.0851
111 1 3.58938 9.85549 5.55993
112 1 1.47321 1.14157 5.71739
113 1 9.10706 13.2982 1.08303
114 1 3.96553 0.182183 6.13821
115 1 10.453 8.04354 2.27825
116 1 3.73389 14.2618 10.3164
117 1 5.69322 11.5836 2.23546
118 1 3.19997 11.0217 14.1654
119 1 12.3857 2.92261 1.60379
120 1 12.4992 13.6409 10.0259
121 1 13.9031 6.53535 13.6476
122 1 11.1476 0.933399 2.48065
123 1 1.72372 1.37951 1.08905
124 1 8.05191 0.6512 6.6683
125 1 12.7004 10.651 -0.161835
126 1 13.9607 3.84547 10.788
127 1 12.6145 4.16263 4.0812
128 1 4.94453 9.73315 0.413198
129 2 4.76597 4.88857 12.2179
130 2 4.66271 5.12575 14.1271
131 2 14.1796 4.8089 13.7916
132 2 -0.0751339 3.75192 13.2025
133 2 7.12176 9.8383 4.26367
134 2 8.48483 10.3699 3.53228
135 2 0.830133 4.1572 4.32148
136 2 2.17625 3.73714 3.80059
137 2 14.3456 10.7253 10.2115
138 2 13.5453 10.1831 11.3588
139 2 10.5202 0.665872 0.698603
140 2 9.23506 0.796459 14.9136
141 2 13.3846 9.43732 7.05423
142 2 13.1859 10.5237 5.91743
143 2 3.53842 14.0493 8.47156
144 2 3.60555 14.3049 6.94582
145 2 3.26172 5.85609 2.21742
146 2 3.20302 6.18001 3.71614
147 2 5.32777 8.58294 1.86244
148 2 4.6677 7.23004 2.67959
149 2 13.2526 6.80056 2.66104
150 2 14.5403 7.15238 1.93425
151 2 0.975592 9.22635 13.7325
152 2 0.566678 10.4824 14.8127
153 2 14.2561 5.06982 4.4068
154 2 14.9705 6.3321 4.7639
155 2 10.8681 6.2231 7.44329
156 2 9.11413 6.37036 7.26489
157 2 12.592 7.02067 4.96876
158 2 11.5348 7.67689 3.73498
159 2 9.72135 3.02534 7.63104
160 2 10.1104 3.56519 6.41425
161 2 4.0003 3.2352 11.5547
162 2 5.20464 3.49789 10.7366
163 2 8.15938 9.98816 11.1189
164 2 7.53802 11.3909 11.358
165 2 8.15916 2.71203 14.7709
166 2 7.65369 1.86702 13.8194
167 2 6.40693 13.2673 -0.209223
168 2 4.93027 13.6962 0.288663
169 2 14.4653 13.5415 9.97854
170 2 0.0388407 12.8856 11.2263
171 2 11.4163 1.95077 6.24935
172 2 12.6831 1.08307 5.57063
173 2 10.8324 7.49763 13.4625
174 2 11.2216 7.50594 14.9266
175 2 1.07687 7.93029 5.67183
176 2 1.66859 8.24402 7.17628
177 2 11.2874 9.20398 5.86832
178 2 10.3435 9.87529 4.95655
179 2 14.3367 8.61894 5.09508
180 2 0.126639 8.58103 3.95984
181 2 0.984272 11.792 4.99046
182 2 2.53498 11.0483 4.77716
183 2 6.05298 1.09235 9.88385
184 2 5.08362 -0.161056 10.5078
185 2 12.5855 8.8082 -0.0761608
186 2 12.9538 7.43811 0.720594
187 2 2.34286 7.17114 11.5133
188 2 3.18657 6.29071 12.4942
189 2 3.02626 6.39893 5.75108
190 2 2.85709 5.02448 5.02293
191 2 7.86674 12.9059 8.27838
192 2 8.07296 12.1655 6.96901
193 2 2.55091 2.87673 1.77225
194 2 3.80895 3.21352 2.74226
195 2 3.08186 12.5217 15.092
196 2 2.99152 13.2492 1.09499
197 2 15.0887 5.32779 6.55652
198 2 15.0021 6.21587 7.85771
199 2 11.3353 -0.0955909 7.38271
200 2 11.1398 13.7937 6.88448
201 2 2.02065 14.351 2.45225
202 2 1.37416 0.0519749 1.92252
203 2 6.18129 14.7547 13.582
204 2 5.89872 0.377203 12.4397
205 2 1.041 9.25925 2.26534
206 2 1.08377 10.5354 3.36774
207 2 11.5049 13.8438 12.5885
208 2 11.5777 12.314 12.7035
209 2 1.7878 12.8875 7.98345
210 2 0.523061 12.7801 8.72458
211 2 13.4863 15.1717 0.283404
212 2 13.2775 13.862 14.7302
213 2 14.4266 15.1321 4.27721
214 2 0.520959 14.7638 3.63897
215 2 9.05057 13.6187 11.2833
216 2 9.31517 12.3727 12.3111
217 2 13.0748 6.79038 7.41775
218 2 12.8054 5.49984 6.83007
219 2 8.68796 10.8286 8.15222
220 2 9.82709 9.714 7.31821
221 2 10.1822 10.4506 12.0915
222 2 9.90553 10.7236 13.6858
223 2 9.81297 12.3113 5.40297
224 2 8.54811 11.7027 4.83285
225 2 4.55569 1.00424 13.8801
226 2 3.3998 1.89008 13.3764
227 2 7.29146 12.8693 13.0373
228 2 5.65559 12.8286 13.1267
229 2 3.26937 5.3587 9.18278
230 2 4.51069 5.49407 10.0043
231 2 10.9196 0.0198874 14.0324
232 2 12.0166 0.603806 13.0892
233 2 7.88694 15.1544 3.33301
234 2 8.10835 13.6551 4.22114
235 2 5.14988 1.35716 3.05067
236 2 5.30581 2.66276 4.08113
237 2 12.6731 11.0404 9.19048
238 2 11.5322 10.6034 8.23761
239 2 8.74774 9.73237 0.533681
240 2 9.01082 11.2655 0.219552
241 2 1.48356 1.47195 7.13705
242 2 1.91789 2.91114 8.5025
243 2 8.94573 4.95035 11.9248
244 2 8.11166 6.10324 12.2061
245 2 1.89583 8.92968 9.31105
246 2 1.11162 10.0668 8.5716
247 2 10.861 11.184 2.87281
248 2 10.5814 9.61837 2.82719
249 2 11.056 5.22457 15.0653
250 2 11.1782 3.9638 14.0901
251 2 10.5734 6.36861 9.6457
252 2 9.8428 6.4675 11.1182
253 2 5.88912 10.2594 10.4457
254 2 4.93245 10.8059 9.30487
255 2 7.85908 7.30894 0.761347
256 2 7.27667 7.97304 1.9018
257 2 14.0239 7.18381 9.54326
258 2 14.7786 8.40666 8.83179
259 2 5.89783 14.5973 3.92987
260 2 4.5858 13.9084 3.40993
261 2 6.6344 1.5144 6.78729
262 2 5.09832 1.20065 6.86892
263 2 1.20803 0.919622 9.50671
264 2 0.809129 15.0316 10.4249
265 2 10.6087 12.9709 1.3595
266 2 12.4097 13.0315 1.78
267 2 8.07602 4.69014 10.1081
268 2 8.8077 4.81066 8.57467
269 2 -0.186022 13.5514 5.33602
270 2 0.0768484 12.5402 6.59658
271 2 5.80899 11.5286 7.58172
272 2 4.30613 12.1321 7.76855
273 2 -0.0188118 7.04168 14.3721
274 2 1.46357 7.10508 13.5997
275 2 1.37596 5.30099 11.9381
276 2 0.0802482 4.14522 11.1574
277 2 0.478524 0.663889 11.9811
278 2 0.675347 0.461361 13.3671
279 2 13.2995 12.6473 5.95922
280 2 12.3908 12.1342 6.99313
281 2 6.40674 1.44683 0.569679
282 2 5.86566 0.0277915 1.24751
283 2 5.11564 7.24011 7.23833
284 2 5.11404 8.71489 7.28399
285 2 4.52271 3.18068 14.8122
286 2 4.28595 4.01627 0.551065
287 2 13.8862 2.25279 0.761525
288 2 14.6305 2.40085 14.9675
289 2 7.7248 1.18216 2.11531
290 2 8.31466 2.15746 3.07565
291 2 9.529 3.08925 9.71791
292 2 10.4583 1.58279 10.1819
293 2 1.47094 4.23947 9.91643
294 2 1.17426 4.87834 8.48774
295 2 12.0186 0.0429294 3.58522
296 2 12.3532 14.233 4.51611
297 2 10.0457 5.83622 4.88472
298 2 9.48815 4.32268 4.22036
299 2 9.09527 6.86778 14.4554
300 2 7.58206 6.38079 14.2928
301 2 2.13014 3.02331 12.103
302 2 2.43099 1.67175 11.442
303 2 10.7706 14.5868 10.2471
304 2 10.2306 0.00222286 11.5172
305 2 15.1353 12.2138 0.718366
306 2 0.0292554 10.808 1.71088
307 2 9.14648 2.77001 13.1492
308 2 10.4 3.35445 11.9668
309 2 7.18734 3.90367 4.1959
310 2 7.73674 4.3738 2.72044
311 2 2.76801 12.3535 3.46056
312 2 4.21665 12.1583 2.73375
313 2 13.2729 2.80211 7.57472
314 2 14.3483 4.06749 7.86516
315 2 0.792503 7.37898 0.738839
316 2 1.61315 7.03183 2.15968
317 2 14.2564 10.1575 12.996
318 2 12.9369 10.5221 13.5901
319 2 5.95798 2.55868 8.48772
320 2 7.05237 3.1657 9.23671
321 2 5.13599 4.54529 5.14925
322 2 5.52715 3.11052 5.85937
323 2 13.2658 2.56907 13.5071
324 2 14.1224 1.41502 12.6782
325 2 8.06314 7.37199 5.16729
326 2 9.28586 8.02164 5.79246
327 2 3.41806 7.39665 9.92128
328 2 3.89164 8.84726 10.4504
329 2 4.59002 11.5231 11.2306
330 2 3.91491 11.8354 12.8445
331 2 0.194263 11.7962 12.6338
332 2 0.424202 13.3406 12.9624
333 2 6.21389 8.51445 5.62833
334 2 6.21582 8.1447 4.08461
335 2 9.72525 9.95222 9.89583
336 2 10.0541 8.58197 10.7146
337 2 8.66808 14.7391 9.21984
338 2 7.21571 14.8023 9.64892
339 2 -0.0861533 14.4501 -0.157624
340 2 1.53447 14.1841 15.1049
341 2 6.57932 4.12949 0.376712
342 2 7.76278 4.80314 0.138235
343 2 13.4038 5.61854 10.6409
344 2 12.4323 6.90877 10.718
345 2 6.71283 9.95915 12.738
346 2 7.6004 9.75794 14.1896
347 2 5.86088 6.34804 13.0843
348 2 6.64467 7.65695 13.4062
349 2 3.92848 10.2516 6.27017
350 2 3.10967 8.96891 5.88019
351 2 0.985509 0.528916 5.14104
352 2 1.51876 2.00709 5.18753
353 2 8.71038 13.4474 1.90945
354 2 9.56175 14.2296 0.645883
355 2 3.17323 0.658002 5.87323
356 2 4.24412 15.1402 5.30693
357 2 11.047 7.97635 1.49125
358 2 9.56494 7.85379 1.97888
359 2 2.88206 14.7602 10.3116
360 2 3.68615 13.6399 11.1964
361 2 6.06833 12.5668 1.92041
362 2 6.49108 11.2698 2.93321
363 2 2.2955 10.6876 14.085
364 2 3.81736 10.7006 14.7718
365 2 11.956 3.51914 0.848095
366 2 12.3795 3.64749 2.30526
367 2 12.465 12.8486 9.46716
368 2 12.5715 13.1875 11.0519
369 2 13.8816 6.71279 12.7604
370 2 13.1437 6.71731 14.2511
371 2 11.6233 1.73817 2.14719
372 2 10.1727 1.2107 2.63831
373 2 0.866447 1.70663 0.651645
374 2 2.20246 1.11061 0.305966
375 2 8.15787 -0.0520806 7.38912
376 2 8.7515 1.20073 6.79616
377 2 12.1525 11.2136 0.347059
378 2 13.5169 10.868 0.18117
379 2 14.1511 3.75694 9.83489
380 2 13.7014 3.05835 11.1813
381 2 12.4961 3.30787 4.73586
382 2 11.7294 4.65456 4.4774
383 2 5.07499 10.6244 0.909555
384 2 5.56465 9.53352 15.1969
ITEM: TIMESTEP
400
ITEM: NUMBER OF ATOMS
384
ITEM: BOX BOUNDS pp pp pp
-1.3021218416963443e-01 1.5130212184169675e+01
-1.3021218416963443e-01 1.5130212184169675e+01
-1.3021218416963443e-01 1.5130212184169675e+01
ITEM: ATOMS id type x y z
1 1 4.54299 5.39807 12.6109
2 1 14.6213 3.93114 14.0904
3 1 7.24322 10.8344 3.44539
4 1 1.75207 3.51923 4.4002
5 1 13.5887 9.64443 9.8992
6 1 9.43519 -0.0336268 15.1017
7 1 13.3373 9.73419 6.36187
8 1 3.48246 13.0227 7.9443
9 1 3.40698 6.0934 2.52373
10 1 5.62693 7.50338 2.13733
11 1 13.8403 6.69977 1.99531
12 1 0.717154 10.0637 13.942
13 1 -0.0931602 5.26846 4.86076
14 1 9.63555 6.42868 8.08322
15 1 12.2719 6.76094 4.47363
16 1 10.2426 2.5849 6.73742
17 1 4.63694 3.8358 10.6081
18 1 6.87536 10.5122 11.1173
19 1 7.97988 2.05923 14.4534
20 1 5.79649 13.6118 0.507379
21 1 -0.0920693 13.3638 10.0249
22 1 12.2403 1.86492 5.6767
23 1 10.7295 6.42693 13.4709
24 1 2.03393 7.99848 6.42461
25 1 10.6783 9.08967 5.71591
26 1 15.0266 7.90075 4.74681
27 1 1.65119 11.2058 4.4661
28 1 5.95396 0.553836 10.4378
29 1 12.2404 7.8682 0.00279011
30 1 2.03263 6.45906 12.0904
31 1 3.35583 5.68075 5.28867
32 1 7.52986 11.9926 7.78886
33 1 3.20301 3.4202 1.88274
34 1 3.25927 12.9609 0.0247258
35 1 -0.0259887 4.96197 7.43222
36 1 10.5356 14.682 7.34018
37 1 1.02326 14.2375 1.80292
38 1 5.91418 0.875742 13.098
39 1 0.413889 9.73573 2.82069
40 1 12.2491 12.959 12.3936
41 1 1.1482 11.9877 8.16781
42 1 13.4891 13.86 15.1066
43 1 -0.122413 14.8706 4.10124
44 1 8.38731 12.7764 11.8927
45 1 12.0635 5.98197 7.13366
46 1 9.73582 10.3244 7.94318
47 1 10.0709 10.9391 12.8401
48 1 8.53789 12.3227 5.36552
49 1 3.73556 1.71558 13.9349
50 1 6.08703 13.4013 13.2413
51 1 4.11531 6.16698 8.72521
52 1 11.1759 0.132906 12.8791
53 1 7.39186 14.008 3.57306
54 1 4.5649 2.11904 3.71376
55 1 12.1804 11.2447 8.55237
56 1 8.85272 10.1584 -0.0128344
57 1 2.08416 1.43282 8.26918
58 1 8.56004 5.24438 11.6429
59 1 0.681833 9.3916 8.74555
60 1 10.1292 10.5689 3.61629
61 1 11.5909 3.88595 14.4048
62 1 10.1306 7.04639 10.5242
63 1 4.67036 10.0895 9.72231
64 1 8.1944 8.08508 1.4766
65 1 13.9671 7.26998 8.0831
66 1 4.88806 14.7451 3.78867
67 1 5.75304 1.70962 6.47089
68 1 1.4409 0.16381 10.2988
69 1 11.1683 12.6094 1.94438
70 1 8.81889 3.91463 9.25169
71 1 15.0666 12.608 5.61303
72 1 4.95893 11.0913 7.26416
73 1 0.76606 7.58901 14.1635
74 1 0.569892 4.1706 11.5735
75 1 15.0902 0.69146 12.6105
76 1 12.3471 12.7245 6.00601
77 1 6.32973 1.02537 1.14747
78 1 5.58516 8.07868 7.49982
79 1 4.75504 4.01925 15.0204
80 1 14.5887 1.68857 0.5717
81 1 8.18966 1.2292 2.98633
82 1 10.3072 1.99949 10.5368
83 1 2.00963 4.19648 8.89027
84 1 12.3778 14.898 4.37824
85 1 9.77021 4.54561 4.95882
86 1 8.27842 6.10644 14.8268
87 1 2.62768 2.21129 11.5795
88 1 10.212 14.5645 10.6579
89 1 14.7463 11.318 1.01508
90 1 9.61605 3.17383 12.6838
91 1 7.6288 3.80156 3.4971
92 1 3.09173 12.71 2.77412
93 1 13.1274 3.67263 7.93523
94 1 1.25159 7.65414 1.65649
95 1 13.2566 9.83753 12.6075
96 1 6.43814 2.86379 8.90208
97 1 6.11026 4.4393 5.57291
98 1 12.8177 2.15231 12.4803
99 1 8.73038 7.2397 5.78341
100 1 2.82067 8.1171 9.94474
101 1 4.26877 12.1213 11.7827
102 1 0.995561 12.2281 12.1895
103 1 6.50632 8.3782 4.62196
104 1 9.27676 9.49153 10.5997
105 1 7.56924 14.455 8.68003
106 1 0.956494 14.0013 14.0092
107 1 7.09936 3.95228 1.01346
108 1 12.5512 6.53292 10.9896
109 1 6.97235 9.49631 13.6305
110 1 6.76365 6.94937 12.7526
111 1 3.80993 9.69377 5.10759
112 1 1.41366 1.0712 5.69847
113 1 8.75057 12.9566 1.21233
114 1 3.63966 15.0129 6.29105
115 1 10.7196 8.1839 2.58117
116 1 3.86442 14.2258 10.134
117 1 5.16306 11.3233 1.79591
118 1 3.2353 10.832 13.9954
119 1 12.1715 2.92745 1.71408
120 1 12.3772 13.4633 9.76482
121 1 13.778 6.65379 13.3924
122 1 10.8555 0.738979 2.44832
123 1 1.83112 1.54386 0.879172
124 1 8.22583 0.690715 6.04423
125 1 12.3159 10.4544 0.138186
126 1 13.292 4.03159 10.5884
127 1 12.9515 3.98416 4.29328
128 1 4.70487 9.44709 0.152011
129 2 4.71782 4.60367 11.8172
130 2 4.58574 4.84044 13.6499
131 2 14.0998 4.76076 14.2772
132 2 0.152183 4.0323 13.3817
133 2 6.97191 9.90401 3.77746
134 2 8.20828 10.7876 3.08926
135 2 1.04176 4.34304 4.30995
136 2 2.12589 3.49415 3.66885
137 2 14.4992 9.41351 9.63566
138 2 13.286 9.43352 10.854
139 2 9.71516 0.439125 0.541429
140 2 8.87699 0.670463 14.8707
141 2 13.378 9.97613 7.31701
142 2 13.3625 10.6505 5.92174
143 2 3.66829 13.6269 8.72557
144 2 3.46011 13.6434 7.18744
145 2 3.33911 5.16022 2.32327
146 2 3.28721 6.02354 3.57631
147 2 5.21327 8.27142 1.75515
148 2 4.8174 6.8751 2.24312
149 2 13.7041 6.61344 2.81413
150 2 14.7455 6.91139 2.03047
151 2 0.96938 8.90153 14.0886
152 2 0.175819 10.4461 14.7406
153 2 14.1797 4.67672 4.45536
154 2 14.9473 6.13039 4.64415
155 2 10.4083 6.07492 7.7115
156 2 9.10339 6.81269 7.35224
157 2 12.2719 6.7268 5.40648
158 2 11.5372 7.1792 4.18004
159 2 9.81961 2.90222 7.62873
160 2 10.2443 3.4966 6.18021
161 2 3.87145 3.18561 10.9186
162 2 5.29886 3.47862 9.91879
163 2 7.7283 9.97683 10.8389
164 2 7.27729 11.4707 11.2029
165 2 7.74508 2.69523 15.1156
166 2 7.10131 1.60808 14.1497
167 2 6.01154 13.4484 14.6843
168 2 4.78161 13.5011 0.366614
169 2 14.144 13.3855 9.70129
170 2 0.0268933 13.0718 11.0282
171 2 11.6288 1.90024 6.21598
172 2 12.541 1.13283 5.23492
173 2 11.3594 6.18159 12.598
174 2 11.3616 6.91794 14.0868
175 2 1.13671 8.08715 5.93773
176 2 1.68595 8.42601 7.33679
177 2 11.7108 9.40222 6.02239
178 2 10.5953 9.67666 4.86003
179 2 14.2054 8.38928 5.17804
180 2 -0.0256832 8.57387 4.09053
181 2 1.27423 11.8852 5.13329
182 2 2.30263 10.5682 4.96501
183 2 6.07524 1.34908 9.78264
184 2 5.27286 -0.0876676 10.1275
185 2 12.3952 8.797 0.0522796
186 2 12.8249 7.376 0.674582
187 2 2.39336 7.11379 11.3542
188 2 2.85456 5.76239 12.1327
189 2 3.04106 6.33035 5.85259
190 2 2.63298 5.01396 5.17484
191 2 7.18861 12.8344 8.27367
192 2 7.86277 12.2494 6.91137
193 2 2.43006 2.77362 1.60156
194 2 3.68657 2.77711 2.28245
195 2 3.16378 11.9259 14.9408
196 2 3.26114 12.777 0.976192
197 2 0.120376 4.99638 6.39185
198 2 14.8767 5.66296 7.93243
199 2 10.9463 14.9297 8.09338
200 2 11.498 14.2496 6.8628
201 2 1.65603 13.6485 2.24394
202 2 1.35715 -0.119935 1.5841
203 2 6.19249 0.0703366 13.243
204 2 5.93115 0.990754 12.0708
205 2 0.987455 9.14901 2.42418
206 2 1.05031 10.2778 3.34676
207 2 11.7723 13.7323 12.7818
208 2 11.7474 12.147 12.6748
209 2 2.07076 12.1166 8.10425
210 2 0.716524 12.5788 8.79786
211 2 13.5029 14.8783 14.7547
212 2 13.2937 13.3729 14.3642
213 2 14.326 15.0848 4.0347
214 2 0.276139 14.7992 3.29255
215 2 9.07448 13.3816 11.5045
216 2 8.9521 12.0788 12.288
217 2 12.5561 6.58853 7.79281