ITEM: TIMESTEP
0
ITEM: NUMBER OF ATOMS
384
ITEM: BOX BOUNDS pp pp pp
-3.1180958401302572e-01 1.5311809584013066e+01
-3.1180958401302572e-01 1.5311809584013066e+01
-3.1180958401302572e-01 1.5311809584013066e+01
ITEM: ATOMS id type x y z
1 1 4.57679 5.50123 13.6944
2 1 14.8875 3.66367 14.1079
3 1 8.20115 10.8513 3.91518
4 1 1.55859 4.11103 4.68534
5 1 14.0046 11.0534 10.4291
6 1 10.1562 -0.0244194 -0.0179537
7 1 13.1461 9.78511 5.92123
8 1 3.48566 13.6848 7.87681
9 1 3.32305 6.30373 3.20589
10 1 5.30735 8.37688 2.36991
11 1 13.7801 6.32188 1.70807
12 1 0.692367 10.1945 14.1186
13 1 15.0627 5.43363 4.6639
14 1 9.98456 5.97612 7.92121
15 1 12.4056 7.19481 3.96576
16 1 9.83562 2.64919 6.79506
17 1 4.60459 4.17249 11.4106
18 1 7.55062 10.3381 11.1669
19 1 8.27543 1.89543 14.4455
20 1 5.83253 14.0038 0.549654
21 1 -0.277952 13.5963 10.2649
22 1 12.6457 2.09652 6.28487
23 1 10.7129 7.40871 14.2399
24 1 2.2119 7.88472 6.40809
25 1 10.4542 9.69036 5.97773
26 1 -0.282536 8.22967 4.81222
27 1 1.6652 11.2607 4.20606
28 1 6.17365 -0.094545 10.725
29 1 12.1932 8.4542 0.381712
30 1 2.29814 6.67565 12.652
31 1 3.74006 5.65533 5.77839
32 1 7.64075 12.3667 7.75101
33 1 2.57949 3.81144 2.08856
34 1 3.31976 13.3432 0.0677147
35 1 -0.0967938 5.37115 7.46928
36 1 11.1426 14.5448 7.59235
37 1 1.26174 14.8074 2.57217
38 1 6.41618 0.335516 13.3898
39 1 0.207637 9.92258 2.18818
40 1 12.6731 13.1901 12.8323
41 1 1.29363 11.9761 7.9846
42 1 13.2286 14.8362 0.439531
43 1 -0.123887 15.1905 5.01064
44 1 8.80795 12.7708 12.0788
45 1 12.4172 6.75949 6.79319
46 1 9.49869 10.6014 8.40823
47 1 10.544 10.9934 13.3575
48 1 8.99001 12.8372 5.44675
49 1 4.04829 1.51716 14.6149
50 1 6.69928 13.1999 13.7041
51 1 4.43379 6.10378 9.26553
52 1 11.4216 -0.0969869 13.0672
53 1 8.10878 14.4288 3.40524
54 1 4.3962 2.37166 3.28729
55 1 12.1316 11.4523 8.45349
56 1 8.7458 10.8517 -0.213292
57 1 1.53862 1.7361 8.48855
58 1 8.69585 5.89847 11.616
59 1 1.22107 9.19196 8.49846
60 1 10.635 10.5731 3.14594
61 1 11.4957 4.51089 15.2148
62 1 10.9209 6.7156 10.446
63 1 4.94638 10.4223 10.3546
64 1 7.94749 8.55464 1.09697
65 1 14.5919 7.80968 8.4877
66 1 5.26248 14.7619 3.62401
67 1 5.62202 2.26942 6.97039
68 1 1.29568 -0.0251437 10.348
69 1 11.6689 12.7598 1.5126
70 1 8.10674 4.34492 9.29769
71 1 15.2574 12.5827 5.71394
72 1 5.13758 11.4238 7.95676
73 1 0.807368 7.59384 14.5622
74 1 1.07308 4.35508 11.6836
75 1 -0.103901 0.899318 12.6958
76 1 12.4336 12.7126 5.99741
77 1 6.5124 0.898083 1.44852
78 1 5.22926 7.74021 7.34722
79 1 4.69818 3.85809 0.25821
80 1 14.6318 1.53081 0.260033
81 1 8.7843 1.26425 2.88569
82 1 10.1715 2.86217 10.2074
83 1 1.97586 4.56417 8.94346
84 1 12.6683 15.2799 4.82665
85 1 10.1623 4.44247 4.67024
86 1 8.26116 6.29332 15.2182
87 1 2.75694 2.33071 12.3211
88 1 10.1168 15.0402 10.6766
89 1 0.0214213 11.8389 0.424274
90 1 9.92368 3.73613 12.9889
91 1 7.93039 3.8304 3.09944
92 1 3.45334 12.7245 2.72154
93 1 13.7442 3.34545 8.32257
94 1 1.06378 7.50528 1.70711
95 1 13.5608 9.51663 12.896
96 1 6.16563 2.34739 9.6158
97 1 6.00658 4.12469 4.96415
98 1 13.0409 2.11594 12.6389
99 1 9.44842 7.22402 5.61094
100 1 3.08802 8.31472 10.412
101 1 4.27645 12.564 12.0172
102 1 0.247817 12.7339 12.6695
103 1 6.92237 8.32243 4.80264
104 1 10.2096 9.4039 11.0142
105 1 8.10819 14.6608 9.11245
106 1 0.724807 14.5893 14.8093
107 1 7.38606 3.87893 0.612739
108 1 13.59 6.17467 11.3541
109 1 6.57455 9.82429 14.0409
110 1 6.72525 7.05567 13.1783
111 1 3.66994 10.3273 5.96103
112 1 1.66543 1.60839 5.77048
113 1 9.05834 13.0173 1.11863
114 1 4.11235 0.213829 6.02437
115 1 10.3679 8.11545 2.36753
116 1 3.8208 14.5044 10.4834
117 1 6.27696 11.8524 2.07137
118 1 3.1417 11.1769 14.1451
119 1 12.971 3.21476 1.56998
120 1 12.4061 13.5738 10.1924
121 1 14.0948 6.56232 13.8874
122 1 11.4172 0.689063 2.37021
123 1 1.65778 1.52802 1.12949
124 1 7.74882 0.714644 6.86752
125 1 13.0368 10.8806 0.0461404
126 1 14.1536 3.59273 10.8941
127 1 12.9937 3.74289 4.44237
128 1 4.93288 10.2326 0.481908
129 2 4.52916 4.87676 12.9369
130 2 4.69703 5.06241 14.547
131 2 14.6886 4.58995 14.3163
132 2 0.0945933 3.63697 13.6264
133 2 7.74221 10.0755 4.24889
134 2 8.99342 10.7228 3.34745
135 2 0.788771 4.72927 4.53377
136 2 1.81069 3.95163 3.77685
137 2 14.4008 11.9252 10.4575
138 2 13.9069 10.7269 11.3647
139 2 10.6725 0.201823 0.765773
140 2 9.47367 0.652849 -0.0632908
141 2 13.5922 9.97565 6.76473
142 2 13.2152 10.5455 5.32572
143 2 3.67781 14.0964 8.7488
144 2 3.53939 14.3835 7.27865
145 2 3.09567 5.45978 2.78243
146 2 3.60518 6.19337 4.09913
147 2 5.08995 9.05489 1.76222
148 2 4.54185 7.79795 2.5309
149 2 13.4381 6.67871 2.59019
150 2 14.7355 6.25337 1.79471
151 2 0.77524 9.18308 14.2443
152 2 0.388115 10.6288 14.9234
153 2 14.1894 4.91997 4.56536
154 2 14.9228 6.4107 4.60147
155 2 10.8762 5.93786 7.61697
156 2 9.58879 6.53361 7.20672
157 2 12.1014 7.06547 4.8105
158 2 11.5829 7.27566 3.48345
159 2 9.70669 3.06202 7.62541
160 2 9.96186 3.35305 6.0781
161 2 3.89127 3.51534 11.556
162 2 5.31618 3.63484 11.0911
163 2 8.36256 9.80951 10.99
164 2 7.91946 11.2623 11.3115
165 2 7.80256 2.56448 14.9346
166 2 7.58248 1.21916 14.1315
167 2 6.10462 13.5421 -0.242407
168 2 4.85977 13.825 0.528199
169 2 14.4101 13.8153 10.1623
170 2 -0.0704958 13.4422 11.1966
171 2 11.7088 2.1063 6.54679
172 2 12.6961 1.18401 5.89058
173 2 10.9921 7.5299 13.3514
174 2 11.2636 8.01166 14.7268
175 2 1.57728 7.89927 5.7134
176 2 1.87051 8.36741 7.16573
177 2 11.4302 9.71213 6.20698
178 2 10.3486 10.1292 5.1128
179 2 14.4149 8.445 5.04536
180 2 0.00164071 8.8165 4.03796
181 2 1.02838 11.8189 4.67407
182 2 2.36173 10.8675 4.79517
183 2 6.32838 0.734699 10.265
184 2 5.21972 -0.301306 10.6492
185 2 12.568 9.37229 0.310345
186 2 12.8634 7.95827 0.824663
187 2 2.56428 7.41349 12.0109
188 2 3.14156 6.4193 13.0935
189 2 3.16723 6.41343 5.9805
190 2 3.10221 4.98312 5.63197
191 2 7.73547 13.1577 8.33842
192 2 8.06104 12.6116 6.87934
193 2 1.75422 3.38105 1.7562
194 2 3.25148 3.1727 2.47226
195 2 3.15037 12.6412 14.9757
196 2 3.16776 12.9566 0.983888
197 2 0.0720948 5.37286 6.52711
198 2 -0.245356 6.34024 7.61737
199 2 11.6512 14.8569 8.35832
200 2 11.802 13.9131 7.23812
201 2 2.07792 14.3411 2.56175
202 2 1.50629 0.044002 2.08403
203 2 6.3968 14.9261 13.4491
204 2 6.20534 0.425411 12.4267
205 2 0.660795 9.1318 1.85703
206 2 0.694078 10.391 2.87312
207 2 12.3708 14.0972 13.0916
208 2 12.1841 12.5232 13.366
209 2 2.09163 12.5603 7.87369
210 2 0.901668 12.2269 8.80367
211 2 13.6981 0.109016 0.335681
212 2 13.4443 14.3386 15.279
213 2 14.5376 15.2076 4.93591
214 2 0.228484 14.9795 4.13145
215 2 9.24837 13.4527 11.622
216 2 9.52013 12.2417 12.5392
217 2 12.875 7.30125 7.44426
218 2 13.1287 6.09272 6.70831
219 2 8.70364 11.2231 8.31889
220 2 9.67729 10.2938 7.51515
221 2 10.4955 10.2933 12.7118
222 2 10.0325 10.7711 14.1408
223 2 9.87115 13.0955 5.5737
224 2 8.95145 12.0108 4.93614
225 2 4.74251 0.928236 14.2575
226 2 3.48888 1.81195 13.8977
227 2 7.56401 13.1017 13.1985
228 2 6.02622 12.6782 13.2435
229 2 3.65548 5.64787 8.88705
230 2 4.53028 5.65688 10.1121
231 2 10.7483 -0.0654962 13.7661
232 2 11.7812 0.808853 13.0779
233 2 8.36482 -0.291862 3.46612
234 2 8.34757 14.0066 4.25098
235 2 5.1094 1.81781 2.95108
236 2 4.6411 2.96006 4.03817
237 2 12.5339 11.0417 9.22128
238 2 11.1841 11.2095 8.49369
239 2 8.60742 10.312 0.576946
240 2 8.69537 11.7883 0.0583599
241 2 1.42282 1.68337 7.50469
242 2 1.60998 2.65673 8.73322
243 2 8.87953 5.11923 12.1645
244 2 8.03029 6.40716 12.1505
245 2 1.95332 8.95172 9.16853
246 2 1.28006 10.1574 8.3047
247 2 11.2632 11.2403 2.79611
248 2 10.7957 9.70539 2.72449
249 2 11.5653 5.40273 -0.288322
250 2 11.1896 4.32648 14.2564
251 2 10.4204 6.65681 9.62663
252 2 10.2607 6.46258 11.0571
253 2 5.87632 10.1769 10.5904
254 2 4.94364 10.8143 9.46912
255 2 7.91802 7.6928 0.604333
256 2 7.17835 8.74025 1.63464
257 2 14.2008 7.92642 9.35992
258 2 -0.267797 8.44072 8.55252
259 2 6.16366 14.3915 3.8125
260 2 4.75946 14.0077 3.26281
261 2 6.35085 1.60272 6.90857
262 2 4.84301 1.75402 6.76165
263 2 1.34137 0.662419 9.62968
264 2 0.817817 14.7755 10.0578
265 2 10.8342 13.0339 1.10914
266 2 12.2496 13.5788 1.43103
267 2 7.99168 4.93257 10.0429
268 2 8.59208 4.87508 8.55834
269 2 -0.0863874 13.5026 5.64494
270 2 0.00602987 12.1735 6.56287
271 2 6.0476 11.6847 7.84187
272 2 4.65027 12.2574 7.8746
273 2 -0.10786 7.21382 14.4417
274 2 1.40859 7.20909 13.8607
275 2 1.10879 5.19843 12.1297
276 2 0.142322 4.18446 11.4107
277 2 0.192301 0.569522 11.8253
278 2 0.262058 0.216297 13.3227
279 2 13.325 12.966 5.76917
280 2 12.474 12.1815 6.79075
281 2 6.96454 1.33987 0.72514
282 2 6.22808 -0.0168944 1.14781
283 2 5.28424 6.95392 7.95734
284 2 5.69738 8.44349 7.79401
285 2 4.59695 2.96295 -0.156096
286 2 4.05776 3.8329 1.0606
287 2 14.2623 2.20361 0.861912
288 2 14.7961 2.02476 15.1013
289 2 7.90736 0.984376 2.41964
290 2 8.42535 2.08554 3.23522
291 2 9.33834 3.30929 9.83257
292 2 10.1754 1.88055 10.1119
293 2 1.75381 4.52695 9.90946
294 2 1.11552 4.78978 8.54253
295 2 12.2645 0.0873025 4.07993
296 2 12.0334 14.6435 5.15054
297 2 9.97133 5.30379 5.02216
298 2 9.51596 4.30903 3.95105
299 2 9.11176 6.41377 14.7882
300 2 7.57568 6.54 14.599
301 2 2.07189 2.92609 11.9449
302 2 2.69894 1.52435 11.845
303 2 10.8501 14.3815 10.4642
304 2 10.5118 -0.206863 11.478
305 2 0.274248 12.7719 0.61942
306 2 0.108425 11.2293 1.22179
307 2 9.70727 2.84376 13.3266
308 2 10.3129 3.49932 12.1129
309 2 7.16744 3.93944 3.6373
310 2 7.68964 3.77425 2.12389
311 2 2.7812 12.2345 3.34142
312 2 4.17512 12.108 2.65722
313 2 13.4252 2.63657 7.76521
314 2 14.4885 3.85196 7.85505
315 2 1.16553 7.50623 0.684607
316 2 1.80702 6.9489 2.01705
317 2 14.4305 9.58843 13.243
318 2 13.0187 10.0336 13.4694
319 2 5.70123 2.57075 8.68482
320 2 6.80813 3.05178 9.52933
321 2 5.35787 4.80808 5.12533
322 2 5.96938 3.53575 5.71789
323 2 13.0854 2.74416 13.3668
324 2 13.871 1.59988 12.7008
325 2 8.54415 7.16809 5.28465
326 2 9.76316 8.11779 5.62097
327 2 3.5805 7.58031 10.0651
328 2 3.76188 9.05652 10.3377
329 2 4.55808 11.8882 11.3243
330 2 3.56374 12.075 12.5347
331 2 0.334551 11.7965 12.6005
332 2 0.24849 12.8839 13.5924
333 2 6.35726 8.22802 5.65351
334 2 6.38531 8.12785 4.02112
335 2 10.214 9.5859 10.0692
336 2 10.6644 8.57403 11.1276
337 2 8.95214 14.8857 9.64428
338 2 7.3584 14.7538 9.70982
339 2 0.591563 15.0693 0.0182509
340 2 1.70203 14.3696 14.7724
341 2 6.4741 3.89198 0.306924
342 2 7.8908 4.74294 0.474307
343 2 13.7745 5.25403 11.174
344 2 12.6407 6.3597 11.1641
345 2 6.61181 10.3071 13.1711
346 2 7.38294 10.2018 14.4287
347 2 5.92965 6.53312 13.3142
348 2 6.65131 8.00804 13.4902
349 2 4.1508 10.9057 6.58172
350 2 3.72612 9.43762 6.27968
351 2 0.960879 1.05271 5.33877
352 2 1.48012 2.49213 5.40543
353 2 8.71011 13.4532 1.93204
354 2 8.99593 13.78 0.520382
355 2 3.28533 0.709593 5.89467
356 2 4.52263 -0.105961 5.1872
357 2 10.8957 8.12501 1.5533
358 2 9.392 8.09909 2.00114
359 2 2.85608 14.8006 10.6062
360 2 3.90293 13.7417 11.0449
361 2 6.48734 12.6937 1.54518
362 2 7.04029 11.6822 2.67807
363 2 2.24681 10.7375 14.3261
364 2 3.668 10.6767 14.8241
365 2 12.3482 3.69431 0.972113
366 2 13.2921 3.83378 2.19605
367 2 12.5073 12.8061 9.60602
368 2 12.5354 13.311 11.1419
369 2 13.9506 6.55755 12.8999
370 2 13.4462 7.1125 14.3857
371 2 11.8334 1.45816 2.05064
372 2 10.4376 0.894116 2.52875
373 2 0.844146 1.54638 0.605455
374 2 2.39804 1.38307 0.478242
375 2 7.77884 0.12269 7.66547
376 2 8.60235 1.23456 6.91956
377 2 12.4122 11.5105 0.551261
378 2 13.9301 11.2794 0.187093
379 2 13.8259 3.47873 9.96028
380 2 13.5184 3.1733 11.5056
381 2 12.9666 3.11167 5.2382
382 2 12.0906 4.05916 4.29522
383 2 5.48443 10.7696 1.07083
384 2 5.47524 10.05 -0.286949
ITEM: TIMESTEP
200
ITEM: NUMBER OF ATOMS
384
ITEM: BOX BOUNDS pp pp pp
-2.2989006347002316e-01 1.5229890063470055e+01
-2.0075667969305755e-01 1.5200756679693095e+01
-2.0224793522469486e-01 1.5202247935224751e+01
ITEM: ATOMS id type x y z
1 1 4.48886 5.57369 13.1286
2 1 14.4819 3.8587 13.95
3 1 7.65981 10.6747 3.71861
4 1 1.66991 3.86814 4.63152
5 1 13.7379 10.0246 10.2759
6 1 9.92592 0.150434 -0.152192
7 1 13.2961 9.59115 6.06926
8 1 3.4869 13.3522 7.65119
9 1 3.28498 6.49475 2.77492
10 1 5.40285 8.03501 2.4724
11 1 13.7962 6.5108 1.88232
12 1 0.562538 10.1002 13.6586
13 1 14.8824 5.37666 4.79985
14 1 9.85768 5.98116 7.81962
15 1 12.1546 6.97873 3.98705
16 1 9.98101 2.87607 6.84657
17 1 4.6146 3.87635 11.2372
18 1 7.34295 10.4541 11.1095
19 1 8.30782 1.96673 14.3927
20 1 5.80684 13.7489 0.503675
21 1 -0.0755696 13.1896 9.88133
22 1 12.5183 2.0145 6.03726
23 1 10.784 7.02019 14.0906
24 1 1.97124 7.77298 6.18768
25 1 10.5205 9.2579 5.75997
26 1 15.1238 8.16098 4.64902
27 1 1.72995 11.3702 4.43789
28 1 6.00885 0.372502 10.6158
29 1 12.2145 8.02201 0.246909
30 1 2.16399 6.5525 12.3075
31 1 3.59581 5.60225 5.34226
32 1 7.73227 12.0195 7.81581
33 1 2.9226 3.65163 2.15644
34 1 2.94585 13.318 0.169085
35 1 -0.135246 5.48465 7.55537
36 1 10.7887 14.6323 7.40855
37 1 1.34164 14.5849 2.48772
38 1 6.01375 0.435277 13.4068
39 1 0.548032 9.9693 2.69813
40 1 12.2952 13.0467 12.679
41 1 0.9965 12.1338 7.96151
42 1 13.7662 14.21 0.20604
43 1 -0.101588 15.0525 4.66356
44 1 8.58023 12.7357 11.7619
45 1 12.4413 6.34968 6.68695
46 1 9.72059 10.347 8.18951
47 1 10.4758 10.9101 12.8721
48 1 8.8004 12.4026 5.2941
49 1 3.81302 1.63623 14.3393
50 1 6.47765 13.1581 13.4939
51 1 3.99509 5.89534 9.09012
52 1 11.2189 -0.0489214 12.9476
53 1 7.63767 14.1769 3.45684
54 1 4.53303 2.11652 3.35083
55 1 12.2114 11.2161 8.43707
56 1 8.8322 10.2552 -0.145598
57 1 1.78357 1.75227 8.38362
58 1 8.39516 5.52605 11.586
59 1 1.23122 9.04504 8.34931
60 1 10.537 10.486 3.29928
61 1 11.6951 4.33014 14.7746
62 1 10.5972 6.87021 10.4945
63 1 4.94161 10.0641 9.94408
64 1 7.92347 8.04823 1.3353
65 1 14.3017 7.78623 8.49742
66 1 4.95901 14.7186 3.69647
67 1 5.69942 1.89613 6.75819
68 1 1.47741 0.438334 10.4751
69 1 11.4117 12.4665 1.41785
70 1 8.198 4.24942 9.29654
71 1 15.2204 12.621 5.67638
72 1 5.06247 11.2275 7.63098
73 1 0.828677 7.47229 14.3824
74 1 1.01707 4.28369 11.8135
75 1 -0.1051 0.723103 12.8363
76 1 12.5142 12.4029 6.1242
77 1 6.38836 0.964205 1.31671
78 1 5.6216 8.00185 7.1858
79 1 4.60662 4.08025 -0.137973
80 1 14.6808 1.64847 0.275107
81 1 8.62593 1.17569 2.76017
82 1 10.1359 2.6111 10.2776
83 1 1.74484 4.30546 8.78302
84 1 12.6642 15.0808 4.13458
85 1 10.218 4.78512 5.02723
86 1 8.38657 6.18405 14.956
87 1 2.68464 2.31387 12.0933
88 1 9.97444 14.6629 10.7476
89 1 -0.140737 11.2461 0.570822
90 1 9.69195 3.60328 12.7558
91 1 7.97746 3.85325 3.55174
92 1 3.26208 12.615 2.72762
93 1 13.461 3.48373 8.12843
94 1 0.833462 7.5166 1.84153
95 1 13.351 9.79022 12.785
96 1 6.08599 2.69845 9.2151
97 1 5.79227 3.81251 5.01639
98 1 13.0015 1.94185 12.7641
99 1 9.01748 7.07641 5.38801
100 1 2.99924 8.15244 10.2324
101 1 4.55261 12.0884 12.0515
102 1 0.490239 12.6509 12.3199
103 1 6.79711 8.47507 4.72196
104 1 9.82195 9.53721 10.773
105 1 7.86363 14.5429 9.01354
106 1 0.637026 14.3399 14.4956
107 1 7.46377 3.91171 0.71326
108 1 13.4519 6.68614 10.9986
109 1 6.77243 9.51265 13.5894
110 1 6.83934 6.93841 13.1218
111 1 3.57549 9.97955 5.68836
112 1 1.54104 1.18404 5.74402
113 1 8.98697 13.2227 0.972158
114 1 3.89115 0.0616821 6.12592
115 1 10.4682 8.12312 2.25128
116 1 3.86928 14.1953 10.3489
117 1 5.6595 11.5509 2.24199
118 1 3.15325 11.0427 14.0682
119 1 12.5111 2.88999 1.61706
120 1 12.576 13.4463 9.98715
121 1 13.8302 6.39845 13.7631
122 1 11.279 0.790307 2.13029
123 1 1.77556 1.28656 1.10612
124 1 8.06356 0.788206 6.6075
125 1 12.703 10.5652 -0.194523
126 1 13.9575 3.91765 10.76
127 1 12.6333 4.06106 4.11946
128 1 4.89422 9.69587 0.291566
129 2 4.76762 4.88044 12.174
130 2 4.7331 5.21422 14.0807
131 2 14.1737 4.77084 13.9346
132 2 -0.157709 3.68634 13.2262
133 2 7.21681 9.78777 4.17732
134 2 8.59012 10.3803 3.55247
135 2 0.751163 4.22088 4.30086
136 2 2.07926 3.72678 3.86017
137 2 14.3699 10.6237 10.2759
138 2 13.5559 9.88296 11.2823
139 2 10.5756 0.461553 0.604105
140 2 9.16106 0.734557 14.9255
141 2 13.5443 9.26949 7.04112
142 2 13.0671 10.4961 6.06548
143 2 3.68197 13.9841 8.49841
144 2 3.67155 14.1394 7.00201
145 2 3.30569 5.76036 2.17455
146 2 3.32896 6.07395 3.62673
147 2 5.16248 8.5805 1.64308
148 2 4.64973 7.26821 2.60296
149 2 13.2007 6.74121 2.6051
150 2 14.5761 7.13439 1.99049
151 2 0.852614 9.24038 13.6452
152 2 0.58905 10.6205 14.668
153 2 14.2179 4.94536 4.33907
154 2 14.8969 6.29816 4.6926
155 2 10.8701 6.25893 7.41346
156 2 9.17089 6.40282 7.12136
157 2 12.4501 7.06619 4.94506
158 2 11.4079 7.59595 3.63503
159 2 9.92217 3.0746 7.74148
160 2 10.0439 3.66053 6.47187
161 2 3.88428 3.24221 11.6163
162 2 5.16797 3.39836 10.8695
163 2 8.12004 10.0075 11.0553
164 2 7.56522 11.4383 11.3374
165 2 8.12832 2.7464 14.8781
166 2 7.58759 1.96801 13.8617
167 2 6.35919 13.1204 15.1013
168 2 4.89484 13.6426 0.202799
169 2 14.4694 13.4167 9.86479
170 2 0.0219969 12.7733 11.0477
171 2 11.3977 2.04862 6.04711
172 2 12.7028 1.16264 5.38381
173 2 10.9655 7.25227 13.2949
174 2 11.2907 7.43967 14.8272
175 2 1.02614 7.95494 5.57374
176 2 1.72895 8.1833 7.06415
177 2 11.3514 9.19194 5.87474
178 2 10.5125 9.95961 4.87803
179 2 14.394 8.6116 5.00236
180 2 0.0858254 8.52053 3.84646
181 2 0.948347 11.737 4.9598
182 2 2.5213 10.9758 4.86094
183 2 6.06899 1.15172 9.85301
184 2 5.22179 -0.135982 10.5852
185 2 12.601 8.79756 -0.121397
186 2 12.9667 7.46936 0.684008
187 2 2.29301 7.22581 11.5354
188 2 3.119 6.38176 12.5268
189 2 3.1912 6.35498 5.77011
190 2 2.81122 4.99874 4.99091
191 2 7.90487 13.0134 8.25262
192 2 8.09645 12.2361 6.95408
193 2 2.36376 2.92602 1.70464
194 2 3.66712 3.35888 2.55852
195 2 2.87004 12.6459 15.0438
196 2 2.88018 13.2749 1.09426
197 2 15.0471 5.40175 6.55566
198 2 15.0566 6.42308 7.77085
199 2 11.4713 -0.0444946 7.62794
200 2 11.2765 13.8861 6.95902
201 2 2.12428 14.3142 2.67002
202 2 1.54318 0.0840555 2.06052
203 2 6.13524 14.7175 13.5804
204 2 5.86746 0.48669 12.5029
205 2 1.2312 9.33841 2.23934
206 2 1.0975 10.5424 3.29335
207 2 11.586 13.8079 12.5908
208 2 11.6347 12.319 12.8333
209 2 1.90691 12.69 8.0389
210 2 0.552783 12.6256 8.66889
211 2 13.7532 15.0803 0.205639
212 2 13.3103 13.6497 14.8052
213 2 14.4249 15.0957 4.33464
214 2 0.511912 14.807 3.77436
215 2 9.12386 13.564 11.2466
216 2 9.35885 12.328 12.3184
217 2 13.0784 6.76117 7.27925
218 2 12.8044 5.49889 6.63934
219 2 8.73916 10.8124 8.15025
220 2 9.86491 9.82295 7.27715
221 2 10.2697 10.3638 12.1596
222 2 9.97323 10.712 13.7387
223 2 9.84457 12.2356 5.35374
224 2 8.52303 11.6314 4.79325
225 2 4.49731 0.99864 14.0429
226 2 3.32801 1.88045 13.4994
227 2 7.33688 12.8988 13.0067
228 2 5.77187 12.5972 13.3847
229 2 3.15501 5.323 9.01939
230 2 4.34973 5.53188 9.83646
231 2 10.8482 -0.00215266 13.8861
232 2 12.0007 0.64826 13.0777
233 2 7.91671 15.104 3.32398
234 2 8.19502 13.5823 4.13371
235 2 5.00588 1.27479 3.12568
236 2 5.09484 2.62489 4.11578
237 2 12.6205 10.9375 9.25174
238 2 11.4982 10.5691 8.23371
239 2 8.71587 9.44511 0.465275
240 2 8.86094 11.0421 0.229653
241 2 1.53524 1.46018 7.21464
242 2 1.89199 2.91587 8.6293
243 2 8.99097 4.96696 11.9628
244 2 8.18727 6.12321 12.2435
245 2 1.95481 8.88151 9.18072
246 2 1.24391 10.0318 8.36113
247 2 10.9206 11.2772 2.85199
248 2 10.6458 9.66174 2.75228
249 2 11.1097 5.21079 15.0952
250 2 11.2188 3.93946 14.1098
251 2 10.7417 6.32754 9.72062
252 2 9.9212 6.46934 11.1261
253 2 5.92869 10.1479 10.32
254 2 4.96665 10.7193 9.19661
255 2 7.90418 7.21555 0.931697
256 2 7.14319 8.04785 1.80772
257 2 13.9955 7.44193 9.43258
258 2 14.9115 8.56643 8.7237
259 2 5.97329 14.5812 3.86825
260 2 4.64365 13.8549 3.49421
261 2 6.58781 1.49671 6.74498
262 2 5.05877 1.11965 6.76814
263 2 1.3703 0.867259 9.58801
264 2 0.916428 14.9778 10.5466
265 2 10.4292 12.8508 1.19821
266 2 12.2081 13.1297 1.71115
267 2 8.0707 4.70119 10.1392
268 2 8.64911 4.8 8.57106
269 2 -0.105004 13.5675 5.39594
270 2 0.141268 12.4254 6.56102
271 2 5.88743 11.5221 7.59847
272 2 4.42513 12.062 7.79482
273 2 -0.105576 7.0298 14.4936
274 2 1.33612 7.08803 13.667
275 2 1.31366 5.35771 11.9686
276 2 0.0115137 4.16503 11.1546
277 2 0.460621 0.634005 12.0474
278 2 0.540316 0.53516 13.5088
279 2 13.3927 12.5197 6.01103
280 2 12.5223 12.0777 7.12495
281 2 6.37091 1.3377 0.419937
282 2 6.08056 -0.0573101 1.20252
283 2 5.29986 7.21469 7.45678
284 2 5.33873 8.67845 7.71907
285 2 4.52371 3.20289 14.9224
286 2 4.20814 4.09053 0.581933
287 2 14.055 2.19787 0.707474
288 2 14.7373 2.36504 14.8964
289 2 7.90769 1.19043 2.15919
290 2 8.44635 2.00561 3.2585
291 2 9.49794 3.20678 9.83659
292 2 10.5784 1.68751 10.0877
293 2 1.26826 4.28321 9.78574
294 2 1.0991 4.93799 8.36996
295 2 11.9917 -0.0438641 3.36304
296 2 12.4925 14.2315 4.41486
297 2 10.0673 5.83034 4.87511
298 2 9.52497 4.34186 4.26967
299 2 9.17354 6.72344 14.5084
300 2 7.6904 6.30701 14.3426
301 2 2.06595 3.09112 12.1069
302 2 2.37765 1.73038 11.5366
303 2 10.6366 14.4436 10.0481
304 2 10.2837 -0.105831 11.4454
305 2 15.089 12.2018 0.620578
306 2 0.136413 10.8642 1.5423
307 2 9.08897 2.85782 13.2479
308 2 10.3447 3.19959 11.9694
309 2 7.20241 3.83963 4.18858
310 2 7.71487 4.17251 2.70378
311 2 2.6444 12.2315 3.39622
312 2 4.1265 12.0992 2.76479
313 2 13.2404 2.80852 7.48015
314 2 14.2492 4.06626 7.78612
315 2 0.758397 7.44298 0.834394
316 2 1.74525 6.95494 2.0886
317 2 14.2235 10.0317 12.9705
318 2 12.8996 10.3788 13.5314
319 2 5.88231 2.54425 8.41137
320 2 6.96203 3.09913 9.15164
321 2 5.07402 4.55285 5.0261
322 2 5.52781 3.16273 5.79281
323 2 13.2313 2.63467 13.5891
324 2 14.1147 1.50408 12.6992
325 2 8.02219 7.36814 5.20434
326 2 9.32036 8.06778 5.65885
327 2 3.32651 7.42744 9.79063
328 2 3.82306 8.81424 10.4217
329 2 4.7123 11.3397 11.2499
330 2 3.96331 11.6744 12.8007
331 2 0.121942 11.7528 12.4664
332 2 0.367907 13.2508 12.8886
333 2 6.2149 8.52921 5.65156
334 2 6.16684 8.21664 4.08631
335 2 9.8252 9.94146 9.9054
336 2 10.1321 8.61035 10.7667
337 2 8.71542 14.742 9.22452
338 2 7.27853 14.8874 9.69204
339 2 15.1921 14.3832 15.1893
340 2 1.37692 14.2067 15.0291
341 2 6.6413 4.12426 0.646706
342 2 7.78871 4.79132 0.463559
343 2 13.379 5.71363 10.688
344 2 12.5178 7.0221 10.8261
345 2 6.79077 9.90771 12.6903
346 2 7.66931 9.67832 14.157
347 2 5.98117 6.37221 13.0833
348 2 6.79049 7.6848 13.4415
349 2 3.97773 10.2424 6.43413
350 2 3.10682 9.05172 5.87979
351 2 0.961786 0.587442 5.22405
352 2 1.50867 2.06412 5.23366
353 2 8.6393 13.3692 1.82751
354 2 9.40025 14.174 0.565746
355 2 3.12339 0.601119 5.92926
356 2 4.15666 15.0692 5.26678
357 2 11.062 8.06074 1.45979
358 2 9.57479 7.9347 2.01236
359 2 3.0518 14.7501 10.4695
360 2 3.88412 13.5911 11.2133
361 2 5.98602 12.5059 1.85578
362 2 6.54075 11.2787 2.84049
363 2 2.27975 10.7531 13.8367
364 2 3.70559 10.6155 14.6478
365 2 12.1165 3.54826 0.870278
366 2 12.4246 3.55113 2.38046
367 2 12.5473 12.5609 9.55679
368 2 12.6938 13.0987 11.0397
369 2 13.8845 6.4584 12.8542
370 2 12.9919 6.5322 14.231
371 2 11.7884 1.64251 1.97579
372 2 10.3141 1.11759 2.29556
373 2 0.939306 1.63108 0.604037
374 2 2.35317 1.0891 0.348028
375 2 8.19001 0.145968 7.39685
376 2 8.64355 1.4344 6.75985
377 2 12.2125 11.2285 0.236714
378 2 13.5658 10.7846 0.0122887
379 2 14.1564 3.84687 9.81223
380 2 13.6017 3.15231 11.1343
381 2 12.5337 3.23591 4.87384
382 2 11.7696 4.59801 4.49054
383 2 5.06036 10.6072 0.767123
384 2 5.44828 9.46888 15.015
ITEM: TIMESTEP
400
ITEM: NUMBER OF ATOMS
384
ITEM: BOX BOUNDS pp pp pp
-1.7792508045011868e-01 1.5177925080450148e+01
-7.2874872329593998e-02 1.5072874872329617e+01
-1.0143935956222627e-01 1.5101439359562306e+01
ITEM: ATOMS id type x y z
1 1 4.4712 5.49032 12.7397
2 1 14.8582 3.59482 14.0581
3 1 7.20688 10.5224 3.58618
4 1 1.81631 3.4412 4.34159
5 1 13.7364 9.73544 10.088
6 1 9.39314 15.063 15.0115
7 1 13.3941 9.23846 6.40532
8 1 3.46404 13.0538 7.93949
9 1 3.43895 6.04197 2.51621
10 1 5.64393 7.51844 2.04759
11 1 14.0807 6.86043 2.06084
12 1 0.691911 10.0478 13.6644
13 1 -0.0272318 5.30753 4.72981
14 1 9.59466 6.3268 8.16115
15 1 12.2844 6.54628 4.35682
16 1 10.2681 2.79051 6.80362
17 1 4.53061 4.00996 10.6622
18 1 7.0555 10.4341 11.004
19 1 7.95497 2.02969 14.4515
20 1 5.80728 13.4044 0.551977
21 1 0.0158704 13.1983 9.76345
22 1 12.0609 1.90204 5.28032
23 1 10.7341 6.45073 13.5155
24 1 1.91742 7.81867 6.23611
25 1 10.6242 9.11915 5.79252
26 1 15.0248 7.99305 4.73945
27 1 1.66691 11.0886 4.39643
28 1 5.92853 0.578141 10.5437
29 1 12.0843 7.73829 0.174836
30 1 1.98924 6.65258 12.0516
31 1 3.44825 5.58908 5.2106
32 1 7.65731 12.0252 7.82622
33 1 3.24608 3.4931 1.73677
34 1 3.16088 13.0388 0.222339
35 1 -0.176547 5.00436 7.2735
36 1 10.7504 14.5528 7.43474
37 1 1.17563 14.3552 2.05305
38 1 6.00342 0.748569 13.2258
39 1 0.409588 9.6875 2.65175
40 1 12.2721 13.08 12.7609
41 1 1.25463 11.8439 8.15118
42 1 13.3043 13.6384 -0.011068
43 1 -0.154894 14.8885 4.30677
44 1 8.77352 12.7426 11.8455
45 1 12.0891 6.00768 7.14462
46 1 9.876 10.2291 7.97959
47 1 10.3625 10.7679 12.6933
48 1 8.50757 12.1204 5.37761
49 1 3.77867 1.67485 14.1274
50 1 6.32861 13.2652 13.2174
51 1 4.08194 6.05328 8.56707
52 1 11.1968 0.303134 12.509
53 1 7.38955 13.8559 3.59246
54 1 4.54953 1.95912 3.44639
55 1 12.1839 11.3304 8.73566
56 1 9.02268 10.1277 -0.053795
57 1 2.23398 1.50112 8.34264
58 1 8.744 5.24491 11.6174
59 1 0.944777 9.12516 8.45147
60 1 10.0602 10.3834 3.48879
61 1 11.8333 3.93044 14.0988
62 1 10.3348 6.91555 10.5572
63 1 4.78073 9.88313 9.60565
64 1 8.25841 7.86539 1.51515
65 1 14.272 7.58669 7.9659
66 1 4.80687 14.5088 3.66797
67 1 5.74831 1.58776 6.57911
68 1 1.6396 0.222793 10.3761
69 1 11.379 12.5332 1.7502
70 1 8.40302 3.92528 9.1937
71 1 -0.116204 12.499 5.67834
72 1 5.23565 11.0319 7.30433
73 1 0.719822 7.5444 14.224
74 1 0.599249 4.26616 11.5887
75 1 -0.0365259 1.07024 12.4655
76 1 12.4003 12.3957 6.07701
77 1 6.32719 0.767932 1.41186
78 1 5.85311 7.98394 7.41955
79 1 4.89119 4.08208 14.9181
80 1 14.4464 1.21677 0.403266
81 1 8.39019 1.03652 2.80128
82 1 10.1091 2.15138 10.3987
83 1 1.81208 4.22229 8.95942
84 1 12.3968 14.773 4.00893
85 1 9.90168 4.66308 5.04038
86 1 8.2239 5.75939 14.9402
87 1 2.63614 2.29271 11.6155
88 1 10.2818 14.5992 10.3017
89 1 14.7121 11.1635 0.77518
90 1 9.65401 3.07535 12.7496
91 1 7.75911 3.54366 3.66423
92 1 3.29022 12.4706 2.9044
93 1 13.0579 3.6494 7.7572
94 1 1.35493 7.62726 1.59095
95 1 13.3329 9.5035 12.6615
96 1 6.12472 2.85557 8.9128
97 1 5.87161 3.95996 5.32601
98 1 12.7827 2.31118 12.3548
99 1 8.70909 7.14389 5.87294
100 1 2.84905 7.97368 9.86757
101 1 4.36308 11.7932 11.7928
102 1 1.10039 12.102 11.82
103 1 6.41083 8.28853 4.73379
104 1 9.36096 9.3714 10.5597
105 1 7.8951 14.5471 8.73047
106 1 0.856036 14.005 14.0423
107 1 7.08538 3.86539 1.20692
108 1 12.9213 6.68737 10.5627
109 1 6.93173 9.44008 13.5068
110 1 6.81888 6.78695 12.9583
111 1 3.68326 9.71274 5.31216
112 1 1.5029 1.14731 5.76877
113 1 8.69494 12.8062 1.07623
114 1 3.64307 14.8577 6.11239
115 1 10.6844 7.99049 2.65606
116 1 3.86215 14.1285 10.2359
117 1 5.38997 11.1073 1.90939
118 1 3.18072 10.9107 14.0551
119 1 12.3863 2.81122 1.3338
120 1 12.6435 13.455 10.0372
121 1 13.8555 6.59932 13.3487
122 1 10.9451 0.747516 2.19988
123 1 1.85523 1.54136 0.926204
124 1 8.32955 0.849154 6.21273
125 1 12.3472 10.284 -0.0138335
126 1 13.4189 4.15421 10.6342
127 1 13.0868 4.14543 3.81174
128 1 4.66168 9.34738 0.0472287
129 2 4.51252 4.72936 11.935
130 2 4.71808 4.90239 13.8245
131 2 14.4254 4.3294 14.6144
132 2 0.258263 3.85861 13.3872
133 2 6.83881 9.61162 3.92184
134 2 8.21458 10.488 3.32878
135 2 1.078 4.22771 4.3061
136 2 2.01433 3.37277 3.53897
137 2 14.6231 9.89579 9.88392
138 2 13.4196 9.78001 11.0451
139 2 9.61993 0.361524 0.548061
140 2 8.794 0.655592 14.8022
141 2 13.793 8.81648 7.29276
142 2 13.5264 10.2703 6.47134
143 2 3.62232 13.7078 8.69128
144 2 3.44461 13.6454 7.15333
145 2 3.32423 5.12201 2.18128
146 2 3.35139 5.81149 3.60273
147 2 5.28171 8.14017 1.46897
148 2 4.88597 6.88388 2.28624
149 2 14.0296 7.06232 2.87597
150 2 15.0134 7.06722 1.92345
151 2 0.863034 8.88728 14.0117
152 2 0.181449 10.4967 14.4456
153 2 14.3661 4.79815 4.24919
154 2 15.1156 6.18923 4.58289
155 2 10.4668 6.1163 7.80147
156 2 9.07489 6.76953 7.40322
157 2 12.1198 6.53521 5.26371
158 2 11.4912 6.83624 3.88433
159 2 10.2413 3.31581 7.68984
160 2 10.2933 3.66557 6.15766
161 2 3.78361 3.27055 10.8638
162 2 5.21087 3.56441 9.98382
163 2 7.93434 9.92319 10.8236
164 2 7.42685 11.3771 11.0782
165 2 7.74483 2.54606 0.0114037
166 2 7.1035 1.43952 14.17
167 2 6.14311 13.2726 14.7206
168 2 4.81372 13.1824 0.443252
169 2 14.2939 13.3737 9.58371
170 2 0.171494 12.9246 10.746
171 2 11.4912 2.02554 5.8771
172 2 12.3049 1.1231 4.95704
173 2 11.1219 6.28132 12.521
174 2 11.3601 7.1469 13.8773
175 2 0.970919 7.92548 5.84384
176 2 1.66416 8.28751 7.13912
177 2 11.6396 9.57273 5.93534
178 2 10.4371 9.64739 4.90554
179 2 14.3129 8.58393 5.4422
180 2 -0.0959532 8.66389 4.11728
181 2 1.28774 11.8374 5.02822
182 2 2.3281 10.5538 4.98343
183 2 5.91298 1.35167 9.83998
184 2 5.25191 14.9827 10.3683
185 2 12.2354 8.64361 0.209751
186 2 12.8035 7.27164 0.753349
187 2 2.3603 7.24449 11.2648
188 2 2.80732 6.01532 12.2112
189 2 3.02328 6.30678 5.61112
190 2 2.67827 4.93087 5.18025
191 2 7.46561 12.9865 8.14485
192 2 7.95507 12.1781 6.92456
193 2 2.43072 2.8701 1.56592
194 2 3.71399 2.92375 2.32122
195 2 3.08054 12.0371 14.9772
196 2 3.09776 12.8002 1.14339
197 2 0.212637 4.8801 6.24601
198 2 14.8847 5.77647 7.62618
199 2 11.2201 15.0465 8.01835
200 2 11.6611 14.3475 6.77816
201 2 1.85726 13.9039 2.48292
202 2 1.43281 0.146813 1.83747
203 2 6.40718 -0.0569947 13.2067
204 2 5.92282 0.893192 12.1934
205 2 1.03074 9.05644 2.42776
206 2 1.02439 10.1471 3.30721
207 2 11.839 13.9914 12.6914
208 2 11.5741 12.3347 12.6729
209 2 2.13458 12.1 8.06203
210 2 0.808831 12.3615 8.78614
211 2 13.7281 14.5425 -0.0851934
212 2 12.7687 13.5413 14.4035
213 2 14.3445 15.0213 4.17539
214 2 0.274661 14.7634 3.53421
215 2 9.3466 13.3443 11.3573
216 2 9.3763 12.0612 12.2184
217 2 12.6377 6.4943 7.93362
218 2 12.3674 4.90229 7.36591