ITEM: TIMESTEP
0
ITEM: NUMBER OF ATOMS
384
ITEM: BOX BOUNDS pp pp pp
-3.1180958401302572e-01 1.5311809584013066e+01
-3.1180958401302572e-01 1.5311809584013066e+01
-3.1180958401302572e-01 1.5311809584013066e+01
ITEM: ATOMS id type x y z
1 1 4.57679 5.50123 13.6944
2 1 14.8875 3.66367 14.1079
3 1 8.20115 10.8513 3.91518
4 1 1.55859 4.11103 4.68534
5 1 14.0046 11.0534 10.4291
6 1 10.1562 -0.0244194 -0.0179537
7 1 13.1461 9.78511 5.92123
8 1 3.48566 13.6848 7.87681
9 1 3.32305 6.30373 3.20589
10 1 5.30735 8.37688 2.36991
11 1 13.7801 6.32188 1.70807
12 1 0.692367 10.1945 14.1186
13 1 15.0627 5.43363 4.6639
14 1 9.98456 5.97612 7.92121
15 1 12.4056 7.19481 3.96576
16 1 9.83562 2.64919 6.79506
17 1 4.60459 4.17249 11.4106
18 1 7.55062 10.3381 11.1669
19 1 8.27543 1.89543 14.4455
20 1 5.83253 14.0038 0.549654
21 1 -0.277952 13.5963 10.2649
22 1 12.6457 2.09652 6.28487
23 1 10.7129 7.40871 14.2399
24 1 2.2119 7.88472 6.40809
25 1 10.4542 9.69036 5.97773
26 1 -0.282536 8.22967 4.81222
27 1 1.6652 11.2607 4.20606
28 1 6.17365 -0.094545 10.725
29 1 12.1932 8.4542 0.381712
30 1 2.29814 6.67565 12.652
31 1 3.74006 5.65533 5.77839
32 1 7.64075 12.3667 7.75101
33 1 2.57949 3.81144 2.08856
34 1 3.31976 13.3432 0.0677147
35 1 -0.0967938 5.37115 7.46928
36 1 11.1426 14.5448 7.59235
37 1 1.26174 14.8074 2.57217
38 1 6.41618 0.335516 13.3898
39 1 0.207637 9.92258 2.18818
40 1 12.6731 13.1901 12.8323
41 1 1.29363 11.9761 7.9846
42 1 13.2286 14.8362 0.439531
43 1 -0.123887 15.1905 5.01064
44 1 8.80795 12.7708 12.0788
45 1 12.4172 6.75949 6.79319
46 1 9.49869 10.6014 8.40823
47 1 10.544 10.9934 13.3575
48 1 8.99001 12.8372 5.44675
49 1 4.04829 1.51716 14.6149
50 1 6.69928 13.1999 13.7041
51 1 4.43379 6.10378 9.26553
52 1 11.4216 -0.0969869 13.0672
53 1 8.10878 14.4288 3.40524
54 1 4.3962 2.37166 3.28729
55 1 12.1316 11.4523 8.45349
56 1 8.7458 10.8517 -0.213292
57 1 1.53862 1.7361 8.48855
58 1 8.69585 5.89847 11.616
59 1 1.22107 9.19196 8.49846
60 1 10.635 10.5731 3.14594
61 1 11.4957 4.51089 15.2148
62 1 10.9209 6.7156 10.446
63 1 4.94638 10.4223 10.3546
64 1 7.94749 8.55464 1.09697
65 1 14.5919 7.80968 8.4877
66 1 5.26248 14.7619 3.62401
67 1 5.62202 2.26942 6.97039
68 1 1.29568 -0.0251437 10.348
69 1 11.6689 12.7598 1.5126
70 1 8.10674 4.34492 9.29769
71 1 15.2574 12.5827 5.71394
72 1 5.13758 11.4238 7.95676
73 1 0.807368 7.59384 14.5622
74 1 1.07308 4.35508 11.6836
75 1 -0.103901 0.899318 12.6958
76 1 12.4336 12.7126 5.99741
77 1 6.5124 0.898083 1.44852
78 1 5.22926 7.74021 7.34722
79 1 4.69818 3.85809 0.25821
80 1 14.6318 1.53081 0.260033
81 1 8.7843 1.26425 2.88569
82 1 10.1715 2.86217 10.2074
83 1 1.97586 4.56417 8.94346
84 1 12.6683 15.2799 4.82665
85 1 10.1623 4.44247 4.67024
86 1 8.26116 6.29332 15.2182
87 1 2.75694 2.33071 12.3211
88 1 10.1168 15.0402 10.6766
89 1 0.0214213 11.8389 0.424274
90 1 9.92368 3.73613 12.9889
91 1 7.93039 3.8304 3.09944
92 1 3.45334 12.7245 2.72154
93 1 13.7442 3.34545 8.32257
94 1 1.06378 7.50528 1.70711
95 1 13.5608 9.51663 12.896
96 1 6.16563 2.34739 9.6158
97 1 6.00658 4.12469 4.96415
98 1 13.0409 2.11594 12.6389
99 1 9.44842 7.22402 5.61094
100 1 3.08802 8.31472 10.412
101 1 4.27645 12.564 12.0172
102 1 0.247817 12.7339 12.6695
103 1 6.92237 8.32243 4.80264
104 1 10.2096 9.4039 11.0142
105 1 8.10819 14.6608 9.11245
106 1 0.724807 14.5893 14.8093
107 1 7.38606 3.87893 0.612739
108 1 13.59 6.17467 11.3541
109 1 6.57455 9.82429 14.0409
110 1 6.72525 7.05567 13.1783
111 1 3.66994 10.3273 5.96103
112 1 1.66543 1.60839 5.77048
113 1 9.05834 13.0173 1.11863
114 1 4.11235 0.213829 6.02437
115 1 10.3679 8.11545 2.36753
116 1 3.8208 14.5044 10.4834
117 1 6.27696 11.8524 2.07137
118 1 3.1417 11.1769 14.1451
119 1 12.971 3.21476 1.56998
120 1 12.4061 13.5738 10.1924
121 1 14.0948 6.56232 13.8874
122 1 11.4172 0.689063 2.37021
123 1 1.65778 1.52802 1.12949
124 1 7.74882 0.714644 6.86752
125 1 13.0368 10.8806 0.0461404
126 1 14.1536 3.59273 10.8941
127 1 12.9937 3.74289 4.44237
128 1 4.93288 10.2326 0.481908
129 2 4.52916 4.87676 12.9369
130 2 4.69703 5.06241 14.547
131 2 14.6886 4.58995 14.3163
132 2 0.0945933 3.63697 13.6264
133 2 7.74221 10.0755 4.24889
134 2 8.99342 10.7228 3.34745
135 2 0.788771 4.72927 4.53377
136 2 1.81069 3.95163 3.77685
137 2 14.4008 11.9252 10.4575
138 2 13.9069 10.7269 11.3647
139 2 10.6725 0.201823 0.765773
140 2 9.47367 0.652849 -0.0632908
141 2 13.5922 9.97565 6.76473
142 2 13.2152 10.5455 5.32572
143 2 3.67781 14.0964 8.7488
144 2 3.53939 14.3835 7.27865
145 2 3.09567 5.45978 2.78243
146 2 3.60518 6.19337 4.09913
147 2 5.08995 9.05489 1.76222
148 2 4.54185 7.79795 2.5309
149 2 13.4381 6.67871 2.59019
150 2 14.7355 6.25337 1.79471
151 2 0.77524 9.18308 14.2443
152 2 0.388115 10.6288 14.9234
153 2 14.1894 4.91997 4.56536
154 2 14.9228 6.4107 4.60147
155 2 10.8762 5.93786 7.61697
156 2 9.58879 6.53361 7.20672
157 2 12.1014 7.06547 4.8105
158 2 11.5829 7.27566 3.48345
159 2 9.70669 3.06202 7.62541
160 2 9.96186 3.35305 6.0781
161 2 3.89127 3.51534 11.556
162 2 5.31618 3.63484 11.0911
163 2 8.36256 9.80951 10.99
164 2 7.91946 11.2623 11.3115
165 2 7.80256 2.56448 14.9346
166 2 7.58248 1.21916 14.1315
167 2 6.10462 13.5421 -0.242407
168 2 4.85977 13.825 0.528199
169 2 14.4101 13.8153 10.1623
170 2 -0.0704958 13.4422 11.1966
171 2 11.7088 2.1063 6.54679
172 2 12.6961 1.18401 5.89058
173 2 10.9921 7.5299 13.3514
174 2 11.2636 8.01166 14.7268
175 2 1.57728 7.89927 5.7134
176 2 1.87051 8.36741 7.16573
177 2 11.4302 9.71213 6.20698
178 2 10.3486 10.1292 5.1128
179 2 14.4149 8.445 5.04536
180 2 0.00164071 8.8165 4.03796
181 2 1.02838 11.8189 4.67407
182 2 2.36173 10.8675 4.79517
183 2 6.32838 0.734699 10.265
184 2 5.21972 -0.301306 10.6492
185 2 12.568 9.37229 0.310345
186 2 12.8634 7.95827 0.824663
187 2 2.56428 7.41349 12.0109
188 2 3.14156 6.4193 13.0935
189 2 3.16723 6.41343 5.9805
190 2 3.10221 4.98312 5.63197
191 2 7.73547 13.1577 8.33842
192 2 8.06104 12.6116 6.87934
193 2 1.75422 3.38105 1.7562
194 2 3.25148 3.1727 2.47226
195 2 3.15037 12.6412 14.9757
196 2 3.16776 12.9566 0.983888
197 2 0.0720948 5.37286 6.52711
198 2 -0.245356 6.34024 7.61737
199 2 11.6512 14.8569 8.35832
200 2 11.802 13.9131 7.23812
201 2 2.07792 14.3411 2.56175
202 2 1.50629 0.044002 2.08403
203 2 6.3968 14.9261 13.4491
204 2 6.20534 0.425411 12.4267
205 2 0.660795 9.1318 1.85703
206 2 0.694078 10.391 2.87312
207 2 12.3708 14.0972 13.0916
208 2 12.1841 12.5232 13.366
209 2 2.09163 12.5603 7.87369
210 2 0.901668 12.2269 8.80367
211 2 13.6981 0.109016 0.335681
212 2 13.4443 14.3386 15.279
213 2 14.5376 15.2076 4.93591
214 2 0.228484 14.9795 4.13145
215 2 9.24837 13.4527 11.622
216 2 9.52013 12.2417 12.5392
217 2 12.875 7.30125 7.44426
218 2 13.1287 6.09272 6.70831
219 2 8.70364 11.2231 8.31889
220 2 9.67729 10.2938 7.51515
221 2 10.4955 10.2933 12.7118
222 2 10.0325 10.7711 14.1408
223 2 9.87115 13.0955 5.5737
224 2 8.95145 12.0108 4.93614
225 2 4.74251 0.928236 14.2575
226 2 3.48888 1.81195 13.8977
227 2 7.56401 13.1017 13.1985
228 2 6.02622 12.6782 13.2435
229 2 3.65548 5.64787 8.88705
230 2 4.53028 5.65688 10.1121
231 2 10.7483 -0.0654962 13.7661
232 2 11.7812 0.808853 13.0779
233 2 8.36482 -0.291862 3.46612
234 2 8.34757 14.0066 4.25098
235 2 5.1094 1.81781 2.95108
236 2 4.6411 2.96006 4.03817
237 2 12.5339 11.0417 9.22128
238 2 11.1841 11.2095 8.49369
239 2 8.60742 10.312 0.576946
240 2 8.69537 11.7883 0.0583599
241 2 1.42282 1.68337 7.50469
242 2 1.60998 2.65673 8.73322
243 2 8.87953 5.11923 12.1645
244 2 8.03029 6.40716 12.1505
245 2 1.95332 8.95172 9.16853
246 2 1.28006 10.1574 8.3047
247 2 11.2632 11.2403 2.79611
248 2 10.7957 9.70539 2.72449
249 2 11.5653 5.40273 -0.288322
250 2 11.1896 4.32648 14.2564
251 2 10.4204 6.65681 9.62663
252 2 10.2607 6.46258 11.0571
253 2 5.87632 10.1769 10.5904
254 2 4.94364 10.8143 9.46912
255 2 7.91802 7.6928 0.604333
256 2 7.17835 8.74025 1.63464
257 2 14.2008 7.92642 9.35992
258 2 -0.267797 8.44072 8.55252
259 2 6.16366 14.3915 3.8125
260 2 4.75946 14.0077 3.26281
261 2 6.35085 1.60272 6.90857
262 2 4.84301 1.75402 6.76165
263 2 1.34137 0.662419 9.62968
264 2 0.817817 14.7755 10.0578
265 2 10.8342 13.0339 1.10914
266 2 12.2496 13.5788 1.43103
267 2 7.99168 4.93257 10.0429
268 2 8.59208 4.87508 8.55834
269 2 -0.0863874 13.5026 5.64494
270 2 0.00602987 12.1735 6.56287
271 2 6.0476 11.6847 7.84187
272 2 4.65027 12.2574 7.8746
273 2 -0.10786 7.21382 14.4417
274 2 1.40859 7.20909 13.8607
275 2 1.10879 5.19843 12.1297
276 2 0.142322 4.18446 11.4107
277 2 0.192301 0.569522 11.8253
278 2 0.262058 0.216297 13.3227
279 2 13.325 12.966 5.76917
280 2 12.474 12.1815 6.79075
281 2 6.96454 1.33987 0.72514
282 2 6.22808 -0.0168944 1.14781
283 2 5.28424 6.95392 7.95734
284 2 5.69738 8.44349 7.79401
285 2 4.59695 2.96295 -0.156096
286 2 4.05776 3.8329 1.0606
287 2 14.2623 2.20361 0.861912
288 2 14.7961 2.02476 15.1013
289 2 7.90736 0.984376 2.41964
290 2 8.42535 2.08554 3.23522
291 2 9.33834 3.30929 9.83257
292 2 10.1754 1.88055 10.1119
293 2 1.75381 4.52695 9.90946
294 2 1.11552 4.78978 8.54253
295 2 12.2645 0.0873025 4.07993
296 2 12.0334 14.6435 5.15054
297 2 9.97133 5.30379 5.02216
298 2 9.51596 4.30903 3.95105
299 2 9.11176 6.41377 14.7882
300 2 7.57568 6.54 14.599
301 2 2.07189 2.92609 11.9449
302 2 2.69894 1.52435 11.845
303 2 10.8501 14.3815 10.4642
304 2 10.5118 -0.206863 11.478
305 2 0.274248 12.7719 0.61942
306 2 0.108425 11.2293 1.22179
307 2 9.70727 2.84376 13.3266
308 2 10.3129 3.49932 12.1129
309 2 7.16744 3.93944 3.6373
310 2 7.68964 3.77425 2.12389
311 2 2.7812 12.2345 3.34142
312 2 4.17512 12.108 2.65722
313 2 13.4252 2.63657 7.76521
314 2 14.4885 3.85196 7.85505
315 2 1.16553 7.50623 0.684607
316 2 1.80702 6.9489 2.01705
317 2 14.4305 9.58843 13.243
318 2 13.0187 10.0336 13.4694
319 2 5.70123 2.57075 8.68482
320 2 6.80813 3.05178 9.52933
321 2 5.35787 4.80808 5.12533
322 2 5.96938 3.53575 5.71789
323 2 13.0854 2.74416 13.3668
324 2 13.871 1.59988 12.7008
325 2 8.54415 7.16809 5.28465
326 2 9.76316 8.11779 5.62097
327 2 3.5805 7.58031 10.0651
328 2 3.76188 9.05652 10.3377
329 2 4.55808 11.8882 11.3243
330 2 3.56374 12.075 12.5347
331 2 0.334551 11.7965 12.6005
332 2 0.24849 12.8839 13.5924
333 2 6.35726 8.22802 5.65351
334 2 6.38531 8.12785 4.02112
335 2 10.214 9.5859 10.0692
336 2 10.6644 8.57403 11.1276
337 2 8.95214 14.8857 9.64428
338 2 7.3584 14.7538 9.70982
339 2 0.591563 15.0693 0.0182509
340 2 1.70203 14.3696 14.7724
341 2 6.4741 3.89198 0.306924
342 2 7.8908 4.74294 0.474307
343 2 13.7745 5.25403 11.174
344 2 12.6407 6.3597 11.1641
345 2 6.61181 10.3071 13.1711
346 2 7.38294 10.2018 14.4287
347 2 5.92965 6.53312 13.3142
348 2 6.65131 8.00804 13.4902
349 2 4.1508 10.9057 6.58172
350 2 3.72612 9.43762 6.27968
351 2 0.960879 1.05271 5.33877
352 2 1.48012 2.49213 5.40543
353 2 8.71011 13.4532 1.93204
354 2 8.99593 13.78 0.520382
355 2 3.28533 0.709593 5.89467
356 2 4.52263 -0.105961 5.1872
357 2 10.8957 8.12501 1.5533
358 2 9.392 8.09909 2.00114
359 2 2.85608 14.8006 10.6062
360 2 3.90293 13.7417 11.0449
361 2 6.48734 12.6937 1.54518
362 2 7.04029 11.6822 2.67807
363 2 2.24681 10.7375 14.3261
364 2 3.668 10.6767 14.8241
365 2 12.3482 3.69431 0.972113
366 2 13.2921 3.83378 2.19605
367 2 12.5073 12.8061 9.60602
368 2 12.5354 13.311 11.1419
369 2 13.9506 6.55755 12.8999
370 2 13.4462 7.1125 14.3857
371 2 11.8334 1.45816 2.05064
372 2 10.4376 0.894116 2.52875
373 2 0.844146 1.54638 0.605455
374 2 2.39804 1.38307 0.478242
375 2 7.77884 0.12269 7.66547
376 2 8.60235 1.23456 6.91956
377 2 12.4122 11.5105 0.551261
378 2 13.9301 11.2794 0.187093
379 2 13.8259 3.47873 9.96028
380 2 13.5184 3.1733 11.5056
381 2 12.9666 3.11167 5.2382
382 2 12.0906 4.05916 4.29522
383 2 5.48443 10.7696 1.07083
384 2 5.47524 10.05 -0.286949
ITEM: TIMESTEP
200
ITEM: NUMBER OF ATOMS
384
ITEM: BOX BOUNDS pp pp pp
-2.2989006347002316e-01 1.5229890063470055e+01
-2.0075667969305755e-01 1.5200756679693095e+01
-2.0224793522469486e-01 1.5202247935224751e+01
ITEM: ATOMS id type x y z
1 1 4.50355 5.57104 13.0913
2 1 14.5192 3.85845 13.9648
3 1 7.65844 10.6588 3.71636
4 1 1.65238 3.8717 4.63585
5 1 13.7101 10.0146 10.268
6 1 9.92735 0.175605 -0.146179
7 1 13.2937 9.57805 6.07894
8 1 3.49116 13.3869 7.6424
9 1 3.26259 6.46045 2.79709
10 1 5.40107 8.03699 2.47057
11 1 13.7642 6.50145 1.88499
12 1 0.554531 10.096 13.6734
13 1 14.9022 5.34025 4.78901
14 1 9.87612 5.984 7.82217
15 1 12.1457 6.96851 3.99944
16 1 9.95029 2.89465 6.84334
17 1 4.64155 3.8722 11.2296
18 1 7.32887 10.4727 11.1105
19 1 8.33941 1.95566 14.4138
20 1 5.79927 13.7605 0.507976
21 1 -0.0782787 13.1967 9.8695
22 1 12.5427 1.98468 6.0207
23 1 10.7911 7.01211 14.0875
24 1 1.96361 7.80061 6.19046
25 1 10.4972 9.28199 5.74282
26 1 15.1413 8.13016 4.63531
27 1 1.75025 11.3678 4.4358
28 1 6.01753 0.381801 10.5838
29 1 12.2381 8.02837 0.238616
30 1 2.13611 6.53802 12.3075
31 1 3.59743 5.62138 5.33997
32 1 7.72894 12.0392 7.80371
33 1 2.91583 3.65661 2.16311
34 1 2.9425 13.3255 0.141355
35 1 -0.143515 5.49575 7.56021
36 1 10.8143 14.6373 7.39852
37 1 1.31959 14.594 2.51201
38 1 6.06241 0.429083 13.4065
39 1 0.545991 9.92931 2.68086
40 1 12.2976 13.0462 12.6823
41 1 0.994769 12.1426 7.95568
42 1 13.7844 14.1814 0.20232
43 1 -0.108526 15.0404 4.64566
44 1 8.57011 12.743 11.765
45 1 12.4637 6.3579 6.67393
46 1 9.72986 10.3526 8.18291
47 1 10.4928 10.9451 12.8779
48 1 8.81138 12.3947 5.29469
49 1 3.83047 1.63726 14.3298
50 1 6.46557 13.1605 13.4851
51 1 4.01004 5.88545 9.09585
52 1 11.1827 -0.0352263 12.9531
53 1 7.63559 14.1682 3.45751
54 1 4.55328 2.11457 3.38583
55 1 12.2117 11.1996 8.41718
56 1 8.85392 10.2716 -0.159488
57 1 1.79109 1.7497 8.38795
58 1 8.39758 5.5585 11.5602
59 1 1.26261 9.03456 8.39257
60 1 10.5552 10.4709 3.28354
61 1 11.707 4.3564 14.7909
62 1 10.6127 6.84757 10.5056
63 1 4.9617 10.0422 9.98064
64 1 7.93688 8.06903 1.34368
65 1 14.3469 7.77632 8.50636
66 1 4.96056 14.6909 3.70478
67 1 5.66749 1.89077 6.76666
68 1 1.47854 0.428565 10.4684
69 1 11.3944 12.4639 1.43879
70 1 8.18264 4.24058 9.31718
71 1 15.2069 12.6249 5.69803
72 1 5.02231 11.211 7.62312
73 1 0.852787 7.46141 14.3983
74 1 1.00185 4.30862 11.8315
75 1 -0.0756811 0.732518 12.8295
76 1 12.5169 12.421 6.09739
77 1 6.36744 0.984925 1.2907
78 1 5.60274 7.98713 7.17222
79 1 4.61051 4.07239 -0.148358
80 1 14.6932 1.62617 0.258747
81 1 8.61472 1.19217 2.78897
82 1 10.1286 2.60615 10.2851
83 1 1.73626 4.29512 8.77097
84 1 12.6791 15.0734 4.13297
85 1 10.2456 4.81897 5.03916
86 1 8.394 6.17776 14.9916
87 1 2.68452 2.32538 12.1061
88 1 9.96598 14.6357 10.7583
89 1 -0.106354 11.2424 0.588431
90 1 9.70647 3.57402 12.7579
91 1 7.96604 3.89179 3.5287
92 1 3.27018 12.6132 2.70171
93 1 13.4506 3.49196 8.13784
94 1 0.836282 7.50504 1.83362
95 1 13.3896 9.81429 12.7978
96 1 6.08558 2.69006 9.22249
97 1 5.78397 3.81698 5.037
98 1 12.9947 1.96098 12.7697
99 1 9.04147 7.05536 5.38341
100 1 3.01249 8.1743 10.2477
101 1 4.57066 12.1168 12.0439
102 1 0.474273 12.6388 12.3293
103 1 6.78043 8.47072 4.72061
104 1 9.81721 9.52667 10.766
105 1 7.87958 14.56 8.99228
106 1 0.600833 14.3507 14.5073
107 1 7.45031 3.94255 0.730092
108 1 13.4645 6.6713 11.011
109 1 6.7782 9.52221 13.6078
110 1 6.83293 6.93794 13.0893
111 1 3.59488 9.96685 5.68337
112 1 1.54919 1.17705 5.72906
113 1 8.98896 13.2056 0.982617
114 1 3.88588 0.0738835 6.13477
115 1 10.4864 8.10467 2.23614
116 1 3.84095 14.1534 10.3716
117 1 5.64139 11.5606 2.21603
118 1 3.16541 11.0496 14.0701
119 1 12.5409 2.87994 1.62192
120 1 12.5858 13.4332 9.97176
121 1 13.8601 6.39527 13.7515
122 1 11.2791 0.782813 2.14086
123 1 1.78688 1.27738 1.08752
124 1 8.04184 0.803911 6.62907
125 1 12.674 10.5573 15.1795
126 1 13.966 3.93421 10.7585
127 1 12.6223 4.06834 4.08078
128 1 4.87125 9.68064 0.294808
129 2 4.6564 4.96117 12.2716
130 2 4.63736 5.33129 14.0607
131 2 14.1074 4.64417 14.0004
132 2 15.1941 3.72039 13.342
133 2 7.1662 9.79597 4.18371
134 2 8.58511 10.4135 3.60141
135 2 0.770072 4.30736 4.30184
136 2 2.11877 3.68497 3.87337
137 2 14.3206 10.7261 10.153
138 2 13.4929 9.87238 11.2584
139 2 10.5449 0.598998 0.580557
140 2 9.15726 0.770168 14.971
141 2 13.5261 9.3103 7.00632
142 2 12.9928 10.5838 5.93905
143 2 3.67718 13.9129 8.49305
144 2 3.5999 14.1359 7.01814
145 2 3.31476 5.71833 2.07168
146 2 3.43061 6.06549 3.64968
147 2 5.20025 8.48349 1.66603
148 2 4.60365 7.22941 2.59599
149 2 13.2857 6.7616 2.62348
150 2 14.571 7.02933 2.00468
151 2 0.820155 9.16261 13.7178
152 2 0.501075 10.612 14.636
153 2 14.1815 4.97614 4.46737
154 2 14.8988 6.32439 4.81443
155 2 10.7866 6.18777 7.39316
156 2 9.16657 6.4522 7.29447
157 2 12.5282 7.02509 4.98558
158 2 11.5351 7.66624 3.55962
159 2 9.87254 3.20389 7.78821
160 2 9.91316 3.74647 6.47933
161 2 3.86772 3.23221 11.5836
162 2 5.19205 3.4528 10.8304
163 2 8.19738 10.0079 11.1337
164 2 7.60732 11.3907 11.3223
165 2 8.05554 2.85619 14.9221
166 2 7.45837 1.93177 13.8703
167 2 6.26813 13.3535 15.1101
168 2 4.91222 13.581 0.291743
169 2 14.4607 13.4583 9.85167
170 2 0.0525231 12.7588 10.9849
171 2 11.4922 2.1353 6.08196
172 2 12.6083 1.17868 5.45651
173 2 10.9552 7.24056 13.1535
174 2 11.3672 7.42665 14.8422
175 2 1.08452 7.84309 5.55794
176 2 1.60482 8.16523 7.00889
177 2 11.4314 9.178 5.93683
178 2 10.5943 9.92484 4.96929
179 2 14.4042 8.66409 5.09727
180 2 0.138899 8.49317 3.76824
181 2 0.991786 11.7008 4.9287
182 2 2.49618 10.9606 4.87522
183 2 6.06894 1.18491 10.0123
184 2 5.03525 -0.078159 10.6347
185 2 12.5322 8.86865 -0.139432
186 2 12.9438 7.4061 0.72671
187 2 2.21249 7.23903 11.6229
188 2 3.1091 6.17877 12.5251
189 2 3.14699 6.3385 5.73561
190 2 2.85947 5.05661 5.09072
191 2 7.90133 13.0145 8.28485
192 2 7.98088 12.191 6.99397
193 2 2.44961 2.83004 1.63525
194 2 3.67471 3.33069 2.52108
195 2 2.82951 12.664 15.0374
196 2 2.79086 13.2434 1.10606
197 2 15.0863 5.39388 6.61505
198 2 15.1292 6.44199 7.76478
199 2 11.4337 -0.0330761 7.56378
200 2 11.3106 13.9293 6.94029
201 2 2.15808 14.184 2.60755
202 2 1.52739 -0.00304116 2.02473
203 2 6.07244 14.7206 13.4545
204 2 5.80009 0.407684 12.4943
205 2 1.28455 9.32437 2.21191
206 2 1.12527 10.473 3.36334
207 2 11.6417 13.783 12.6231
208 2 11.679 12.2803 12.835
209 2 1.87216 12.7809 7.97233
210 2 0.524665 12.6825 8.62687
211 2 13.6843 15.0771 0.203283
212 2 13.2831 13.629 14.8707
213 2 14.4641 15.1608 4.33344
214 2 0.341713 14.7511 3.79659
215 2 9.07774 13.5894 11.2754
216 2 9.27533 12.2947 12.2833
217 2 12.9329 6.82828 7.3074
218 2 12.8191 5.50752 6.58583
219 2 8.82747 10.8628 8.18856
220 2 9.72205 9.87508 7.32048
221 2 10.3351 10.339 12.0928
222 2 9.96737 10.6914 13.6996
223 2 9.85302 12.2595 5.38237
224 2 8.40718 11.696 4.70886
225 2 4.6009 1.14246 14.0667
226 2 3.29413 1.82493 13.529
227 2 7.27747 13.0167 12.9255
228 2 5.7405 12.6716 13.3535
229 2 3.22371 5.34564 9.14743
230 2 4.37513 5.63858 9.9133
231 2 10.8382 -0.0122229 13.9767
232 2 11.9361 0.667661 13.1183
233 2 8.00123 15.1133 3.30066
234 2 8.26314 13.642 4.05462
235 2 4.99578 1.34713 3.09813
236 2 5.18361 2.62362 4.00335
237 2 12.6533 10.7921 9.21738
238 2 11.4214 10.6368 8.26531
239 2 8.56699 9.45439 0.432155
240 2 8.88463 11.106 0.230806
241 2 1.514 1.48762 7.25322
242 2 1.79296 2.87157 8.63574
243 2 8.95451 4.91984 12.0535
244 2 7.98271 6.05529 12.1563
245 2 1.87146 8.83718 9.23271
246 2 1.24172 10.0936 8.33573
247 2 10.9784 11.2974 2.80291
248 2 10.7174 9.66251 2.80308
249 2 11.1052 5.15232 15.1469
250 2 11.1718 3.77835 14.1179
251 2 10.7285 6.29215 9.76932
252 2 9.8884 6.47189 11.0258
253 2 5.81832 10.0275 10.3009
254 2 5.08489 10.721 9.24904
255 2 7.9357 7.16706 0.991096
256 2 7.17812 7.99613 1.86843
257 2 13.934 7.47252 9.55845
258 2 14.846 8.4114 8.73898
259 2 5.8888 14.6027 3.83389
260 2 4.61056 13.7301 3.4958
261 2 6.57105 1.47979 6.81451
262 2 5.11319 1.14985 6.79988
263 2 1.51987 0.889023 9.48642
264 2 1.02266 14.8712 10.4555
265 2 10.4701 12.901 1.20411
266 2 12.0302 13.1251 1.81631
267 2 8.1236 4.74992 10.1455
268 2 8.64472 4.86186 8.53456
269 2 -0.09973 13.5709 5.42469
270 2 0.162226 12.2906 6.55466
271 2 5.97335 11.4346 7.61042
272 2 4.42279 12.1256 7.81847
273 2 -0.0650993 6.89505 14.3905
274 2 1.30531 7.05035 13.6998
275 2 1.2713 5.26709 11.8392
276 2 0.0455486 4.15252 11.2191
277 2 0.441972 0.734165 11.9629
278 2 0.572773 0.552251 13.5189
279 2 13.4531 12.502 5.9681
280 2 12.5841 12.087 7.08154
281 2 6.43212 1.33502 0.383866
282 2 6.11023 -0.0609606 1.18092
283 2 5.27546 7.22492 7.46304
284 2 5.25637 8.71102 7.69149
285 2 4.45031 3.07973 15.0279
286 2 4.16155 4.09765 0.602693
287 2 14.0445 2.09671 0.644351
288 2 14.8677 2.43708 14.9813
289 2 7.86716 1.10157 2.07195
290 2 8.47684 2.05855 3.36519
291 2 9.55075 3.25432 9.87215
292 2 10.5533 1.71086 10.055
293 2 1.21799 4.4544 9.73067
294 2 1.13092 4.87123 8.29752
295 2 12.0921 -0.0232862 3.26477
296 2 12.485 14.2629 4.43431
297 2 10.1596 5.73175 4.85368
298 2 9.44173 4.38866 4.12166
299 2 9.11069 6.64185 14.5027
300 2 7.59993 6.22174 14.3335
301 2 2.00656 3.09348 12.0737
302 2 2.34792 1.69849 11.4673
303 2 10.6295 14.4047 9.95741
304 2 10.259 -0.103202 11.4943
305 2 15.1168 12.2439 0.678911
306 2 0.13554 10.7262 1.5731
307 2 9.09928 2.75548 13.2598
308 2 10.3118 3.24427 11.9882
309 2 7.12813 3.87744 4.14133
310 2 7.71671 4.11452 2.67539
311 2 2.57612 12.3612 3.51439
312 2 4.16315 11.9521 2.77471
313 2 13.2222 2.84602 7.4462
314 2 14.1474 3.98015 7.78768
315 2 0.756833 7.45632 0.902879
316 2 1.808 7.00127 2.08684
317 2 14.3232 10.0987 13.013
318 2 12.8406 10.3455 13.5244
319 2 5.86304 2.39624 8.32707
320 2 7.03976 3.14514 9.02661
321 2 5.13692 4.5054 5.0113
322 2 5.47925 3.25317 5.75279
323 2 13.343 2.55034 13.6064
324 2 14.0985 1.61062 12.8305
325 2 8.11353 7.35922 5.32437
326 2 9.33133 8.07766 5.57687
327 2 3.31132 7.48019 9.74533
328 2 3.80556 8.83151 10.3362
329 2 4.75604 11.3801 11.33
330 2 4.06121 11.6681 12.8273
331 2 0.056559 11.7698 12.4164
332 2 0.295274 13.3029 12.9517
333 2 6.27208 8.52679 5.76481
334 2 6.26212 8.20993 4.04892
335 2 9.83859 9.87304 9.81988
336 2 10.1761 8.55875 10.7924
337 2 8.70349 14.7956 9.37231
338 2 7.29784 14.8868 9.68082
339 2 -0.214623 14.2566 15.1217
340 2 1.49053 14.0561 15.1393
341 2 6.57708 4.06524 0.716096
342 2 7.78747 4.72607 0.389582
343 2 13.3348 5.7114 10.7608
344 2 12.5487 7.02808 10.8844
345 2 6.7921 9.93254 12.7308
346 2 7.54284 9.76881 14.2655
347 2 5.95924 6.44808 12.9717
348 2 6.74717 7.86354 13.5701
349 2 4.05031 10.25 6.3762
350 2 3.19694 8.90648 5.90089
351 2 0.992542 0.639529 5.18266
352 2 1.58889 2.04981 5.29595
353 2 8.57945 13.3832 1.88235
354 2 9.48471 14.1746 0.547344
355 2 3.19632 0.68311 6.00154
356 2 4.2018 15.0855 5.16503
357 2 11.139 8.10322 1.49979
358 2 9.48385 8.13089 2.04805
359 2 2.99604 14.7883 10.4237
360 2 3.82725 13.5556 11.1426
361 2 5.82079 12.4928 1.80332
362 2 6.5498 11.2003 2.81795
363 2 2.31926 10.7611 13.7577
364 2 3.74787 10.5711 14.6515
365 2 12.1343 3.46578 0.834937
366 2 12.6222 3.49492 2.40919
367 2 12.4491 12.5799 9.55326
368 2 12.6711 13.2065 11.0504
369 2 13.9385 6.51118 12.8744
370 2 13.0149 6.60537 14.2324
371 2 11.8223 1.74622 2.03938
372 2 10.3274 1.17661 2.23908
373 2 0.839591 1.51632 0.696188
374 2 2.4644 1.10843 0.370756
375 2 8.14619 0.10718 7.52618
376 2 8.73677 1.45644 6.68745
377 2 12.1156 11.3371 0.305691
378 2 13.5704 10.7845 0.0387786
379 2 14.0836 3.76758 9.81045
380 2 13.5649 3.07402 11.1684
381 2 12.5088 3.18681 4.90121
382 2 11.7563 4.52245 4.375
383 2 5.06793 10.5814 0.716926
384 2 5.41877 9.57945 14.9474
ITEM: TIMESTEP
400
ITEM: NUMBER OF ATOMS
384
ITEM: BOX BOUNDS pp pp pp
-1.7792508045011868e-01 1.5177925080450148e+01
-7.2874872329593998e-02 1.5072874872329617e+01
-1.0143935956222627e-01 1.5101439359562306e+01
ITEM: ATOMS id type x y z
1 1 4.45292 5.48756 12.7373
2 1 14.8679 3.57707 14.0493
3 1 7.23962 10.503 3.58163
4 1 1.82557 3.4813 4.35515
5 1 13.7318 9.73785 10.0683
6 1 9.37319 15.0564 14.9886
7 1 13.3895 9.23132 6.42153
8 1 3.45931 13.0656 7.93429
9 1 3.4355 6.01013 2.54526
10 1 5.64743 7.47568 2.00718
11 1 14.0788 6.88061 2.07041
12 1 0.652436 10.0324 13.6772
13 1 -0.026823 5.2983 4.72012
14 1 9.59909 6.32477 8.17438
15 1 12.2781 6.54726 4.35927
16 1 10.2555 2.83807 6.78477
17 1 4.54702 4.00271 10.648
18 1 7.02146 10.4281 11.0175
19 1 7.93236 2.00436 14.4592
20 1 5.77711 13.3891 0.550026
21 1 0.00609149 13.2161 9.76513
22 1 12.0931 1.93492 5.27615
23 1 10.7261 6.44027 13.5462
24 1 1.8915 7.80146 6.23232
25 1 10.5969 9.11307 5.77621
26 1 15.0159 7.98803 4.75229
27 1 1.66759 11.0956 4.38889
28 1 5.92838 0.577728 10.5485
29 1 12.094 7.75436 0.178392
30 1 2.0078 6.64744 12.0492
31 1 3.41528 5.58227 5.208
32 1 7.6625 12.025 7.83411
33 1 3.24706 3.51441 1.75469
34 1 3.17144 13.0295 0.213064
35 1 -0.167609 4.99136 7.2787
36 1 10.7401 14.5748 7.44478
37 1 1.15394 14.348 2.06389
38 1 5.99637 0.769902 13.2421
39 1 0.405172 9.70572 2.65039
40 1 12.273 13.0678 12.7418
41 1 1.25182 11.821 8.17255
42 1 13.31 13.6641 -0.0044686
43 1 -0.16708 14.8814 4.34317
44 1 8.75368 12.7344 11.8256
45 1 12.1016 6.00914 7.15234
46 1 9.86707 10.205 7.9663
47 1 10.3578 10.7715 12.6811
48 1 8.50847 12.1227 5.38679
49 1 3.776 1.69051 14.1191
50 1 6.31854 13.2875 13.2134
51 1 4.08462 6.03185 8.56273
52 1 11.1767 0.291778 12.4966
53 1 7.35552 13.877 3.61042
54 1 4.533 1.97234 3.4645
55 1 12.1813 11.3312 8.71923
56 1 9.0312 10.1219 -0.0765609
57 1 2.19523 1.52354 8.34652
58 1 8.76595 5.24176 11.6075
59 1 0.924138 9.11928 8.48682
60 1 10.0506 10.3758 3.47127
61 1 11.8291 3.93587 14.086
62 1 10.3593 6.89986 10.5563
63 1 4.8073 9.90539 9.62946
64 1 8.2577 7.84014 1.52577
65 1 14.2627 7.61881 7.97156
66 1 4.79504 14.4826 3.65064
67 1 5.7437 1.58712 6.60291
68 1 1.6613 0.204786 10.3531
69 1 11.438 12.5608 1.75378
70 1 8.39597 3.95082 9.23226
71 1 -0.114742 12.4792 5.68074
72 1 5.24111 11.0373 7.31637
73 1 0.705878 7.54936 14.2148
74 1 0.600471 4.27316 11.5764
75 1 -0.0493559 1.0598 12.474
76 1 12.4171 12.4028 6.0727
77 1 6.32392 0.773251 1.40075
78 1 5.82882 7.96566 7.42772
79 1 4.8808 4.04795 14.9007
80 1 14.4357 1.24522 0.409204
81 1 8.38896 1.03084 2.82519
82 1 10.0969 2.16631 10.4097
83 1 1.80046 4.26264 8.99072
84 1 12.4054 14.7556 3.99882
85 1 9.91114 4.64834 5.004
86 1 8.21299 5.75757 14.9027
87 1 2.66047 2.27246 11.6166
88 1 10.2738 14.5809 10.2939
89 1 14.7331 11.1678 0.762803
90 1 9.65099 3.08739 12.7656
91 1 7.7633 3.51058 3.67824
92 1 3.32834 12.4663 2.90443
93 1 13.0792 3.67639 7.74177
94 1 1.34647 7.65804 1.59567
95 1 13.3506 9.48221 12.6683
96 1 6.13836 2.86584 8.92125
97 1 5.8492 3.96354 5.31896
98 1 12.7796 2.31801 12.3658
99 1 8.7428 7.14217 5.87025
100 1 2.85299 7.97298 9.85869
101 1 4.39455 11.7844 11.7866
102 1 1.08577 12.1055 11.8203
103 1 6.41008 8.30519 4.75747
104 1 9.36012 9.38006 10.5797
105 1 7.89554 14.5374 8.74429
106 1 0.855413 14.0079 14.0266
107 1 7.08635 3.90538 1.20168
108 1 12.9201 6.70585 10.5924
109 1 6.93765 9.42859 13.4689
110 1 6.82816 6.78977 12.9713
111 1 3.69781 9.71248 5.33083
112 1 1.50701 1.14926 5.80514
113 1 8.70667 12.812 1.07247
114 1 3.62468 14.8531 6.08831
115 1 10.6726 7.98002 2.67081
116 1 3.82873 14.1499 10.241
117 1 5.4214 11.1048 1.88999
118 1 3.19949 10.8931 14.0674
119 1 12.3799 2.79976 1.30533
120 1 12.6638 13.4703 10.0396
121 1 13.8623 6.5794 13.3405
122 1 10.9244 0.747245 2.19358
123 1 1.85224 1.50637 0.926067
124 1 8.32194 0.845198 6.21445
125 1 12.3692 10.3134 0.00759625
126 1 13.4019 4.14671 10.6166
127 1 13.0449 4.13952 3.81373
128 1 4.65814 9.37376 0.0761826
129 2 4.48277 4.8714 11.9551
130 2 4.69582 4.9202 13.7881
131 2 14.4412 4.31662 14.6853
132 2 0.132239 3.8757 13.3259
133 2 6.76868 9.62477 3.90211
134 2 8.19665 10.459 3.45452
135 2 1.15791 4.24177 4.31611
136 2 2.08056 3.3631 3.49766
137 2 14.6413 10.0011 10.0099
138 2 13.3129 9.7733 11.0272
139 2 9.65664 0.350844 0.486399
140 2 8.72493 0.638906 14.7075
141 2 13.6622 8.7679 7.30108
142 2 13.4852 10.1872 6.3561
143 2 3.52377 13.6903 8.79907
144 2 3.40827 13.6959 7.07263
145 2 3.35957 4.9592 2.24297
146 2 3.37707 5.95306 3.57068
147 2 5.2523 8.12677 1.28824
148 2 4.86483 6.86582 2.29926
149 2 13.9791 7.03591 2.9375
150 2 15.149 7.02004 1.97923
151 2 0.781641 8.95295 14.0562
152 2 0.304753 10.4227 14.4738
153 2 14.4287 4.83435 4.28022
154 2 -0.164761 6.19267 4.59479
155 2 10.4359 6.02204 7.76236
156 2 9.07485 6.71151 7.55883
157 2 11.9998 6.57401 5.2204
158 2 11.4512 6.97907 3.86286
159 2 10.1884 3.46059 7.57641
160 2 10.2396 3.52504 6.0341
161 2 3.71203 3.18921 10.886
162 2 5.27521 3.57104 9.94336
163 2 7.85126 9.8949 10.7764
164 2 7.31632 11.3315 10.872
165 2 7.74101 2.4518 0.0719761
166 2 7.03465 1.44666 14.2356
167 2 6.26967 13.145 14.8599
168 2 4.83795 13.1233 0.372788
169 2 14.3164 13.354 9.58808
170 2 0.210811 12.9403 10.6843
171 2 11.3804 2.04468 5.92263
172 2 12.1765 1.03198 4.96218
173 2 11.054 6.37776 12.4715
174 2 11.261 7.21413 13.9035
175 2 1.00939 8.06281 5.85564
176 2 1.65112 8.28299 7.12824
177 2 11.7525 9.49352 5.78391
178 2 10.4061 9.64935 4.94838
179 2 14.3124 8.57751 5.38577
180 2 -0.0764611 8.67012 4.16048
181 2 1.19514 11.8115 5.1352
182 2 2.36142 10.6071 4.98628
183 2 5.86668 1.36045 9.8171
184 2 5.33004 14.9548 10.331
185 2 12.2268 8.77106 0.257006
186 2 12.6878 7.38927 0.808041
187 2 2.27315 7.24202 11.3979
188 2 2.77132 6.0074 12.2249
189 2 3.09951 6.36114 5.57481
190 2 2.67978 4.94627 5.20244
191 2 7.62063 12.9486 8.1718
192 2 7.97328 12.1045 6.87715
193 2 2.4339 2.91035 1.62155
194 2 3.72719 2.80714 2.2873
195 2 3.09946 12.0865 14.8997
196 2 3.01795 12.7917 1.15922
197 2 0.206345 4.94857 6.21321
198 2 15.0092 5.84648 7.56171
199 2 11.2318 -0.0644606 7.96126
200 2 11.5278 14.3419 6.7925
201 2 1.91103 14.0223 2.57562
202 2 1.41382 0.170791 1.9049
203 2 6.44681 15.0406 13.2894
204 2 5.96159 0.831341 12.2001
205 2 1.04867 9.06971 2.3569
206 2 1.05484 10.1588 3.21951
207 2 11.9297 13.9164 12.6833
208 2 11.5044 12.3777 12.8063
209 2 2.23607 12.204 8.14803
210 2 0.741533 12.3797 8.84177
211 2 13.7053 14.5369 15.0365
212 2 12.7787 13.5032 14.3956
213 2 14.2834 14.9574 4.07636
214 2 0.2831 14.7855 3.50819
215 2 9.30074 13.3378 11.2732
216 2 9.42349 12.1905 12.2356
217 2 12.6932 6.44002 7.92345
218 2 12.3711 4.88235 7.3012