ITEM: TIMESTEP
0
ITEM: NUMBER OF ATOMS
384
ITEM: BOX BOUNDS pp pp pp
0.0000000000000000e+00 1.5645677530000000e+01
0.0000000000000000e+00 1.4707145290000000e+01
0.0000000000000000e+00 1.8073037029999998e+01
ITEM: ATOMS id type x y z
1 1 1.38 1.76 3.37
2 1 5.2 4.47 1.11
3 1 6.59 5.39 3.31
4 1 5.28 4.49 5.56
5 1 2.59 0.84 5.67
6 1 2.69 5.43 5.56
7 1 5.2 1.71 1.07
8 1 5.2 1.73 5.58
9 1 1.32 4.61 7.82
10 1 1.3 4.52 3.36
11 1 2.61 5.41 1.1
12 1 2.59 0.82 1.07
13 1 6.54 0.87 3.33
14 1 6.54 0.88 7.83
15 1 6.51 5.4 7.86
16 1 1.35 1.85 7.92
17 1 9.2 1.76 3.37
18 1 13.05 4.55 1.15
19 1 14.35 5.46 3.4
20 1 13.1 4.49 5.66
21 1 10.41 0.84 5.67
22 1 10.51 5.43 5.65
23 1 13.07 1.79 1.07
24 1 13.02 1.73 5.58
25 1 9.15 4.61 7.91
26 1 9.2 4.52 3.4
27 1 10.45 5.49 1.15
28 1 10.49 0.82 1.12
29 1 14.36 0.87 3.33
30 1 14.36 0.88 7.83
31 1 14.36 5.48 7.9
32 1 9.17 1.85 7.92
33 1 1.3 9.11 3.32
34 1 5.3 11.9 1.11
35 1 6.53 12.81 3.4
36 1 5.2 11.84 5.61
37 1 2.59 8.19 5.58
38 1 2.61 12.79 5.61
39 1 5.25 9.14 1.16
40 1 5.2 9.08 5.67
41 1 1.32 11.96 7.91
42 1 1.38 11.87 3.31
43 1 2.69 12.77 1.06
44 1 2.67 8.17 1.12
45 1 6.49 8.14 3.42
46 1 6.49 8.16 7.92
47 1 6.53 12.83 7.81
48 1 1.35 9.21 7.83
49 1 9.09 9.19 3.37
50 1 13.13 11.9 1.11
51 1 14.44 12.82 3.35
52 1 13.1 11.84 5.56
53 1 10.41 8.19 5.58
54 1 10.51 12.79 5.65
55 1 12.99 9.14 1.12
56 1 13.02 9.08 5.67
57 1 9.12 11.89 7.86
58 1 9.15 11.95 3.4
59 1 10.51 12.77 1.15
60 1 10.38 8.25 1.12
61 1 14.29 8.22 3.37
62 1 14.36 8.24 7.92
63 1 14.36 12.83 7.81
64 1 9.12 9.13 7.83
65 1 1.35 1.83 12.45
66 1 5.2 4.47 10.14
67 1 6.59 5.39 12.34
68 1 5.3 4.56 14.65
69 1 2.67 0.84 14.66
70 1 2.69 5.43 14.6
71 1 5.28 1.71 10.15
72 1 5.25 1.81 14.61
73 1 1.32 4.61 16.85
74 1 1.32 4.59 12.35
75 1 2.63 5.49 10.09
76 1 2.64 0.89 10.2
77 1 6.57 0.79 12.41
78 1 6.54 0.88 16.87
79 1 6.53 5.48 16.94
80 1 1.35 1.85 16.86
81 1 9.2 1.76 12.41
82 1 13.02 4.47 10.14
83 1 14.35 5.46 12.34
84 1 13.05 4.57 14.6
85 1 10.46 0.91 14.71
86 1 10.46 5.51 14.69
87 1 13.1 1.71 10.15
88 1 13.07 1.81 14.61
89 1 9.15 4.61 16.94
90 1 9.2 4.52 12.44
91 1 10.45 5.49 10.18
92 1 10.49 0.82 10.16
93 1 14.39 0.79 12.41
94 1 14.36 0.88 16.87
95 1 14.33 5.4 16.89
96 1 9.17 1.85 16.96
97 1 1.3 9.11 12.45
98 1 5.28 11.83 10.1
99 1 6.59 12.74 12.34
100 1 5.3 11.92 14.65
101 1 2.59 8.19 14.71
102 1 2.69 12.79 14.6
103 1 5.2 9.07 10.2
104 1 5.17 9.16 14.66
105 1 1.38 11.89 16.85
106 1 1.38 11.87 12.35
107 1 2.71 12.84 10.14
108 1 2.56 8.25 10.16
109 1 6.49 8.14 12.46
110 1 6.46 8.24 16.91
111 1 6.61 12.83 16.89
112 1 1.3 9.13 16.96
113 1 9.09 9.19 12.41
114 1 13.13 11.9 10.14
115 1 14.41 12.74 12.44
116 1 13.1 11.84 14.69
117 1 10.38 8.27 14.66
118 1 10.53 12.86 14.64
119 1 12.99 9.14 10.15
120 1 13.02 9.08 14.7
121 1 9.23 11.96 16.9
122 1 9.23 11.95 12.39
123 1 10.51 12.77 10.09
124 1 10.38 8.25 10.16
125 1 14.29 8.22 12.41
126 1 14.31 8.16 16.96
127 1 14.44 12.83 16.89
128 1 9.09 9.21 16.91
129 2 0.46 1.48 3.37
130 2 1.33 2.71 3.37
131 2 5.68 4.81 1.86
132 2 5.67 4.81 0.35
133 2 6.13 5.1 4.1
134 2 6.56 6.34 3.34
135 2 4.38 4.84 5.6
136 2 5.7 4.83 6.36
137 2 2.17 1.18 4.88
138 2 3.49 1.17 5.63
139 2 2.23 5.15 6.35
140 2 2.65 6.39 5.59
141 2 5.65 1.43 1.86
142 2 5.23 2.67 1.1
143 2 5.23 2.69 5.61
144 2 5.65 1.45 6.37
145 2 1.78 4.88 8.61
146 2 1.33 3.65 7.85
147 2 1.78 4.85 4.11
148 2 1.78 4.85 2.6
149 2 3.52 5.14 1.1
150 2 2.64 6.37 1.11
151 2 3.49 1.15 1.11
152 2 2.17 1.16 1.87
153 2 6.09 1.14 4.12
154 2 6.53 14.6171 3.37
155 2 6.09 1.15 8.63
156 2 6.53 14.6371 7.86
157 2 7.43 5.14 7.86
158 2 6.53 6.36 7.86
159 2 1.77 1.51 7.13
160 2 0.46 1.51 7.89
161 2 9.16 2.71 3.37
162 2 8.28 1.48 3.37
163 2 13.06 3.59 1.12
164 2 13.5 4.82 0.36
165 2 13.94 5.12 2.61
166 2 15.25 5.14 3.36
167 2 13.52 4.82 4.86
168 2 12.21 4.84 5.62
169 2 11.31 1.17 5.63
170 2 10 1.18 4.88
171 2 10.47 6.39 5.62
172 2 10.05 5.15 4.86
173 2 12.18 1.46 1.11
174 2 13.49 1.45 1.86
175 2 13.05 2.69 5.61
176 2 13.48 1.45 6.37
177 2 9.61 4.88 7.11
178 2 9.16 3.65 7.88
179 2 8.3 4.84 3.36
180 2 9.61 4.85 2.61
181 2 10.04 5.17 0.35
182 2 11.35 5.14 1.11
183 2 10.02 1.16 0.36
184 2 10.02 1.16 1.88
185 2 13.91 1.14 4.12
186 2 14.35 14.6171 3.37
187 2 13.91 1.15 8.63
188 2 14.36 14.6371 7.86
189 2 13.94 5.14 7.11
190 2 15.26 5.16 7.86
191 2 8.28 1.51 7.89
192 2 9.59 1.51 7.13
193 2 1.75 8.83 4.12
194 2 1.33 10.07 3.36
195 2 4.39 12.19 1.1
196 2 5.25 10.94 1.11
197 2 7.43 12.49 3.36
198 2 6.12 12.48 2.61
199 2 5.68 12.17 4.85
200 2 5.68 12.18 6.37
201 2 2.17 8.54 6.37
202 2 3.49 8.52 5.61
203 2 2.64 13.74 5.61
204 2 3.52 12.51 5.61
205 2 4.35 8.81 1.13
206 2 5.66 8.81 0.36
207 2 5.23 10.04 5.63
208 2 5.65 8.8 4.88
209 2 1.78 12.24 7.11
210 2 1.34 11.01 7.88
211 2 0.48 12.2 3.35
212 2 1.79 12.21 4.11
213 2 2.23 12.49 1.85
214 2 2.65 13.72 1.09
215 2 2.19 8.52 1.88
216 2 2.2 8.52 0.36
217 2 7.38 8.49 3.39
218 2 6.07 8.48 2.63
219 2 6.07 8.5 7.13
220 2 7.38 8.51 7.89
221 2 6.12 12.49 8.61
222 2 7.43 12.51 7.85
223 2 0.46 8.86 7.86
224 2 1.77 8.86 8.62
225 2 9.57 8.85 4.13
226 2 9.57 8.84 2.61
227 2 12.21 12.19 1.1
228 2 13.08 10.94 1.11
229 2 13.95 12.48 2.6
230 2 13.95 12.48 4.11
231 2 13.52 12.18 6.36
232 2 12.21 12.19 5.6
233 2 11.31 8.52 5.61
234 2 10 8.54 6.37
235 2 10.47 13.74 5.62
236 2 10.05 12.51 4.86
237 2 13.47 8.8 1.87
238 2 13.47 8.81 0.36
239 2 13.48 8.8 4.88
240 2 13.05 10.04 5.63
241 2 9.6 12.22 8.62
242 2 9.6 12.22 7.11
243 2 9.16 10.99 3.37
244 2 9.61 12.22 2.61
245 2 10.48 13.72 1.13
246 2 10.05 12.49 0.35
247 2 11.3 8.53 1.12
248 2 10.43 7.29 1.11
249 2 15.2 8.51 3.37
250 2 14.34 7.26 3.37
251 2 14.36 7.28 7.88
252 2 13.91 8.52 7.13
253 2 15.26 12.51 7.85
254 2 13.94 12.49 8.61
255 2 9.15 10.09 7.86
256 2 9.57 8.85 8.62
257 2 1.77 1.49 11.66
258 2 0.46 1.49 12.42
259 2 5.68 4.81 10.9
260 2 5.67 4.81 9.38
261 2 6.56 6.34 12.38
262 2 6.13 5.1 13.14
263 2 4.39 4.85 14.65
264 2 5.25 3.61 14.65
265 2 2.19 1.18 13.9
266 2 2.19 1.18 15.42
267 2 2.23 5.15 15.39
268 2 2.65 6.39 14.63
269 2 4.36 1.44 10.15
270 2 5.24 2.67 10.15
271 2 4.35 1.48 14.65
272 2 5.66 1.47 15.41
273 2 1.78 4.88 17.65
274 2 1.33 3.65 16.89
275 2 1.78 4.87 13.14
276 2 1.34 3.64 12.39
277 2 2.21 5.16 10.89
278 2 3.52 5.14 10.13
279 2 2.19 1.18 9.41
280 2 2.63 14.6471 10.16
281 2 6.09 1.13 11.65
282 2 6.09 1.14 13.17
283 2 6.53 14.6371 16.9
284 2 6.09 1.15 17.67
285 2 7.43 5.16 16.9
286 2 6.12 5.14 16.15
287 2 0.46 1.51 16.89
288 2 1.77 1.51 17.66
289 2 8.28 1.48 12.41
290 2 9.16 2.71 12.4
291 2 13.5 4.81 9.38
292 2 13.5 4.81 10.9
293 2 15.25 5.14 12.39
294 2 13.94 5.13 13.14
295 2 13.51 4.84 15.39
296 2 13.06 3.61 14.64
297 2 10.46 14.6671 14.67
298 2 10.01 1.19 13.91
299 2 11.35 5.16 14.65
300 2 10.04 5.17 13.9
301 2 13.07 2.67 10.15
302 2 12.18 1.44 10.15
303 2 13.49 1.47 15.41
304 2 12.18 1.48 14.65
305 2 9.16 3.65 16.91
306 2 9.61 4.88 16.15
307 2 9.61 4.85 11.64
308 2 8.3 4.84 12.4
309 2 10.04 5.17 9.39
310 2 11.35 5.14 10.15
311 2 10.02 1.16 10.91
312 2 10.02 1.16 9.4
313 2 13.92 1.13 11.65
314 2 13.92 1.14 13.17
315 2 13.91 1.15 17.67
316 2 14.36 14.6371 16.9
317 2 14.36 6.36 16.9
318 2 15.25 5.14 16.9
319 2 8.28 1.51 16.93
320 2 9.59 1.51 16.17
321 2 1.75 8.83 11.66
322 2 1.33 10.07 12.41
323 2 5.7 12.16 10.89
324 2 4.38 12.17 10.13
325 2 6.13 12.46 13.14
326 2 6.56 13.7 12.38
327 2 4.39 12.21 14.65
328 2 5.25 10.96 14.65
329 2 3.49 8.52 14.67
330 2 2.17 8.53 13.91
331 2 2.65 13.74 14.63
332 2 2.23 12.5 15.39
333 2 5.22 10.02 10.17
334 2 5.65 8.79 9.4
335 2 5.65 8.81 13.9
336 2 5.65 8.82 15.42
337 2 0.48 12.22 16.89
338 2 1.79 12.22 17.65
339 2 0.48 12.2 12.39
340 2 1.79 12.21 13.14
341 2 2.23 12.52 9.38
342 2 2.23 12.51 10.89
343 2 2.61 7.29 10.15
344 2 3.48 8.53 10.16
345 2 7.38 8.49 12.42
346 2 6.07 8.48 11.66
347 2 6.52 7.28 16.91
348 2 7.37 8.53 16.91
349 2 6.14 12.5 17.65
350 2 6.13 12.5 16.14
351 2 1.75 8.84 16.16
352 2 1.33 10.09 16.92
353 2 9.57 8.85 13.16
354 2 9.57 8.84 11.65
355 2 13.08 10.94 10.15
356 2 12.21 12.19 10.14
357 2 14.37 13.7 12.41
358 2 13.95 12.46 11.65
359 2 12.21 12.19 14.66
360 2 13.52 12.17 13.9
361 2 11.3 8.55 14.66
362 2 10.43 7.31 14.66
363 2 10.05 12.53 15.4
364 2 10.05 12.52 13.89
365 2 13.47 8.81 9.39
366 2 13.47 8.8 10.91
367 2 13.48 8.8 13.91
368 2 13.05 10.04 14.67
369 2 9.19 11.01 16.9
370 2 8.31 12.24 16.9
371 2 8.31 12.22 12.39
372 2 9.19 10.99 12.4
373 2 10.48 13.72 10.13
374 2 10.05 12.49 10.88
375 2 10.43 7.29 10.15
376 2 11.3 8.53 10.16
377 2 15.2 8.51 12.41
378 2 14.34 7.26 12.4
379 2 15.2 8.51 16.93
380 2 13.89 8.5 16.17
381 2 13.96 12.5 17.65
382 2 13.95 12.5 16.14
383 2 9.57 8.86 16.15
384 2 9.56 8.86 17.67
ITEM: TIMESTEP
200
ITEM: NUMBER OF ATOMS
384
ITEM: BOX BOUNDS pp pp pp
2.4136573719089505e-01 1.5404311792809107e+01
2.3499875751976607e-01 1.4472146532480238e+01
3.2049711169290340e-01 1.7752539918307097e+01
ITEM: ATOMS id type x y z
1 1 1.3128 1.71435 3.31622
2 1 5.03522 4.42893 1.04176
3 1 6.35592 5.29237 3.28825
4 1 5.00892 4.34525 5.44329
5 1 2.58138 0.729471 5.40033
6 1 2.47718 5.29446 5.42878
7 1 5.09847 1.79564 1.02545
8 1 5.13419 1.65224 5.48643
9 1 1.2578 4.31189 7.60394
10 1 1.25958 4.34368 3.26604
11 1 2.51926 5.30632 1.14866
12 1 2.53601 0.839716 1.11421
13 1 6.27067 0.875445 3.26064
14 1 6.27211 0.737013 7.69245
15 1 6.33766 5.29105 7.58055
16 1 1.48995 1.64988 7.58764
17 1 8.76837 1.78581 3.19122
18 1 12.6905 4.37286 1.04271
19 1 13.9801 5.21687 3.21123
20 1 12.7271 4.38394 5.40384
21 1 10.1237 0.842519 5.36143
22 1 10.1456 5.20503 5.47114
23 1 12.7616 1.6962 0.994488
24 1 12.7005 1.77068 5.31317
25 1 8.84924 4.23471 7.59707
26 1 8.90563 4.45534 3.24485
27 1 10.0925 5.36117 1.05884
28 1 10.1665 0.985466 1.04141
29 1 13.8983 0.759125 3.16074
30 1 14.0012 0.874082 7.6037
31 1 13.9711 5.25957 7.67065
32 1 8.87923 1.57459 7.58299
33 1 1.31836 8.76749 3.23357
34 1 5.02066 11.4829 1.12869
35 1 6.35781 12.4181 3.24292
36 1 5.00643 11.4999 5.40646
37 1 2.5491 8.04088 5.41209
38 1 2.45559 12.3105 5.31376
39 1 5.11621 8.90221 1.17624
40 1 5.07652 8.84172 5.39385
41 1 1.35536 11.5594 7.52142
42 1 1.33766 11.4879 3.10263
43 1 2.5117 12.3895 1.03727
44 1 2.58358 7.92577 1.09026
45 1 6.33437 7.98644 3.29258
46 1 6.28819 7.90058 7.56252
47 1 6.27337 12.3529 7.57486
48 1 1.29449 8.86525 7.56816
49 1 8.89719 8.8083 3.2594
50 1 12.6992 11.4656 0.990237
51 1 13.9624 12.2912 3.1649
52 1 12.7538 11.5557 5.40888
53 1 10.1068 7.87684 5.43348
54 1 10.1432 12.3232 5.38867
55 1 12.6388 8.826 1.2305
56 1 12.5556 8.79431 5.34784
57 1 8.75841 11.3991 7.53523
58 1 8.88436 11.442 3.19529
59 1 10.0995 12.4724 1.10175
60 1 10.0857 8.04764 1.14077
61 1 13.9611 7.99234 3.25357
62 1 13.843 7.91861 7.52372
63 1 13.9517 12.5316 7.61212
64 1 8.79072 8.77011 7.6041
65 1 1.31257 1.61014 12.0037
66 1 5.03524 4.426 9.80604
67 1 6.28664 5.35754 11.9075
68 1 5.13412 4.3659 14.0911
69 1 2.6377 0.882767 14.2477
70 1 2.65725 5.29502 14.172
71 1 5.18518 1.76355 9.87332
72 1 5.0875 1.66285 14.2115
73 1 1.38574 4.42352 16.2997
74 1 1.39824 4.4103 11.9828
75 1 2.56465 5.23868 9.69889
76 1 2.57815 0.893331 9.77039
77 1 6.29847 0.820529 11.9977
78 1 6.39587 0.745781 16.3508
79 1 6.33952 5.33657 16.3392
80 1 1.27943 1.70644 16.4328
81 1 8.82613 1.66964 11.958
82 1 12.7335 4.38017 9.7517
83 1 14.0044 5.31361 11.9448
84 1 12.5724 4.39482 14.0188
85 1 10.1863 0.812302 14.1711
86 1 10.0344 5.23615 14.043
87 1 12.6421 1.78678 9.77488
88 1 12.6584 1.71728 14.1702
89 1 8.82585 4.41838 16.3594
90 1 8.81589 4.40335 11.9098
91 1 10.1839 5.28488 9.71604
92 1 10.1038 0.834474 9.80822
93 1 13.8881 0.840945 11.983
94 1 13.9954 0.733382 16.3395
95 1 13.988 5.28549 16.2387
96 1 8.92732 1.86509 16.3223
97 1 1.20819 8.86094 11.8756
98 1 5.06361 11.6068 9.76904
99 1 6.36217 12.3678 11.8973
100 1 5.11535 11.4795 14.127
101 1 2.60925 8.0123 14.1824
102 1 2.58827 12.3732 14.1125
103 1 4.99046 8.89185 9.71122
104 1 5.05667 8.80163 14.2678
105 1 1.37757 11.4417 16.2411
106 1 1.3152 11.4742 11.9828
107 1 2.50348 12.452 9.85987
108 1 2.52147 7.89388 9.76368
109 1 6.14673 7.9724 11.8863
110 1 6.37007 7.9676 16.3929
111 1 6.32822 12.3618 16.3627
112 1 1.21847 8.81353 16.318
113 1 8.85169 8.67004 11.9714
114 1 12.6404 11.5658 9.72077
115 1 13.9009 12.472 11.9767
116 1 12.7609 11.5045 14.1792
117 1 10.0751 7.90907 14.2565
118 1 10.2234 12.4373 14.1512
119 1 12.6206 8.88768 9.71653
120 1 12.6214 8.88846 14.2079
121 1 8.88041 11.6036 16.2763
122 1 8.91221 11.4743 12.009
123 1 10.1318 12.385 9.71347
124 1 10.133 7.93082 9.77309
125 1 13.7873 7.95363 12.0282
126 1 13.8706 7.91012 16.352
127 1 14.0547 12.3983 16.3455
128 1 8.81955 8.8806 16.3894
129 2 0.509738 1.36586 3.37687
130 2 1.34353 2.80692 3.31337
131 2 5.46604 4.71887 1.99655
132 2 5.46825 4.71059 17.6182
133 2 6.089 4.7248 4.07536
134 2 6.26316 6.18646 3.44649
135 2 3.95729 4.53573 5.36026
136 2 5.47874 4.67235 6.38399
137 2 1.95293 1.1687 4.6596
138 2 3.33963 1.33652 5.35037
139 2 2.08504 5.30263 6.40694
140 2 2.76403 6.22574 5.32102
141 2 5.44894 1.37988 1.80039
142 2 5.2354 2.72725 1.05877
143 2 5.03412 2.60818 5.49526
144 2 5.61101 1.38987 6.23721
145 2 1.8886 4.55711 8.55085
146 2 1.36 3.33083 7.51683
147 2 1.80467 4.76637 3.92745
148 2 1.80015 4.77499 2.54688
149 2 3.70174 4.91178 1.26986
150 2 2.52909 6.21865 1.10577
151 2 3.53553 1.14306 0.991051
152 2 2.07852 1.20787 1.96911
153 2 5.66677 1.20321 4.17144
154 2 6.16985 14.0564 3.36413
155 2 5.75156 1.12973 8.44114
156 2 6.28203 13.9853 7.68845
157 2 7.32008 4.89603 7.40993
158 2 6.48239 6.2997 7.41876
159 2 2.03982 1.20413 6.80945
160 2 0.635295 1.24156 7.55519
161 2 8.69949 2.7331 3.20544
162 2 7.78279 1.57418 3.01689
163 2 12.5312 3.32717 0.78736
164 2 13.074 4.63472 17.6558
165 2 13.6779 4.874 2.39461
166 2 14.9619 4.92603 3.34398
167 2 13.1374 4.83066 4.57662
168 2 11.7194 4.75457 5.13863
169 2 10.9486 1.17668 5.52979
170 2 9.56834 1.32556 4.75075
171 2 9.96545 6.27798 5.48837
172 2 9.5111 4.97942 4.73218
173 2 11.7084 1.67209 1.0056
174 2 13.2532 1.46969 1.74263
175 2 12.6402 2.74046 5.39464
176 2 13.0523 1.50341 6.13258
177 2 9.51716 4.68712 6.77304
178 2 8.81365 3.30027 7.5029
179 2 7.94471 4.83413 3.40609
180 2 9.4145 4.82475 2.38649
181 2 9.57231 5.00314 0.354156
182 2 11.1137 5.09789 0.869366
183 2 9.43351 1.25311 0.357421
184 2 9.62586 1.57592 1.81325
185 2 13.4046 1.17016 3.95149
186 2 13.8567 14.1795 3.44761
187 2 13.5371 1.34714 8.36334
188 2 14.0639 13.9326 7.59707
189 2 13.5438 4.91915 6.69092
190 2 14.986 4.9641 7.59357
191 2 7.9773 1.10321 7.52678
192 2 9.38929 1.26701 6.79249
193 2 1.84409 8.53556 3.99282
194 2 1.50517 9.69845 3.01716
195 2 4.16695 11.7673 1.18162
196 2 5.21815 10.4748 1.07337
197 2 7.22974 11.9953 3.376
198 2 6.03142 12.157 2.40946
199 2 5.61533 11.8287 4.68796
200 2 5.34968 11.991 6.1463
201 2 2.09032 8.3953 6.11275
202 2 3.83026 8.47976 5.4718
203 2 2.50749 13.3644 5.14871
204 2 3.43039 12.1029 5.16678
205 2 4.19797 8.5511 1.18328
206 2 5.52667 8.37941 0.400168
207 2 5.10277 9.96917 5.31943
208 2 5.52794 8.48681 4.5761
209 2 1.96231 11.9015 6.81736
210 2 1.20683 10.6746 7.40974
211 2 0.305176 11.9199 3.1064
212 2 1.72537 11.7969 3.89181
213 2 1.91526 12.0651 1.70754
214 2 2.6702 13.3943 0.975377
215 2 2.05638 8.10446 2.05659
216 2 2.04455 8.30848 0.325688
217 2 7.30245 8.45399 3.31766
218 2 5.91456 8.42222 2.54739
219 2 5.86443 8.25757 6.75051
220 2 7.31906 8.48998 7.60785
221 2 5.75743 12.0936 8.35524
222 2 7.19631 11.8884 7.62096
223 2 0.364819 8.50473 7.71005
224 2 1.82566 8.29234 8.26343
225 2 9.47346 8.31289 3.9755
226 2 9.25762 8.46746 2.44538
227 2 11.8366 11.8539 1.11432
228 2 12.6313 10.3553 1.12508
229 2 13.4023 11.6966 2.46824
230 2 13.4432 12.0346 3.94666
231 2 13.3125 12.0318 6.15264
232 2 11.8211 12.0129 5.68558
233 2 11.135 8.17559 5.38526
234 2 9.55754 8.453 6.28038
235 2 10.3228 13.2682 5.20571
236 2 9.78072 12.1217 4.58681
237 2 13.0863 8.64087 2.07991
238 2 13.1169 8.5785 17.7101
239 2 13.1749 8.61826 4.53054
240 2 12.4215 9.91862 5.5752
241 2 9.38587 11.8791 8.12709
242 2 9.18685 11.8801 6.70923
243 2 8.96812 10.4835 3.19669
244 2 9.25608 11.6437 2.41791
245 2 9.87177 13.3885 1.10193
246 2 9.77179 12.1992 17.6317
247 2 11.1186 8.42349 1.15529
248 2 10.001 6.99582 1.11026
249 2 14.9122 8.2608 3.52621
250 2 14.0658 6.83497 3.07403
251 2 13.6054 6.9053 7.69281
252 2 13.3808 8.3594 6.60187
253 2 14.9466 12.1118 7.49387
254 2 13.3847 12.093 8.45923
255 2 8.99944 9.68518 7.42647
256 2 9.33435 8.48393 8.3026
257 2 1.62884 1.27039 11.1274
258 2 0.479976 1.29009 11.9974
259 2 5.69827 4.85951 10.4554
260 2 5.40039 4.90721 8.98927
261 2 6.16764 6.4426 11.7612
262 2 5.98034 5.03385 12.6827
263 2 4.31082 4.78375 14.0662
264 2 5.00482 3.35091 13.9972
265 2 1.94181 1.40026 13.5851
266 2 2.38891 1.09009 15.2382
267 2 2.30277 4.82552 15.0136
268 2 2.44211 6.31975 14.1631
269 2 4.22206 1.51157 9.84841
270 2 5.19173 2.69752 9.7825
271 2 4.20385 1.21127 14.2656
272 2 5.70308 1.24757 14.8983
273 2 1.51467 4.69734 17.2369
274 2 1.20974 3.28228 16.2677
275 2 2.0843 4.78088 12.8762
276 2 1.45263 3.39434 11.9062
277 2 2.18244 4.8843 10.5837
278 2 3.56348 4.91597 9.77541
279 2 2.00501 1.19808 8.89428
280 2 2.50429 14.0973 9.75123
281 2 5.78074 1.16141 11.2353
282 2 5.99701 1.04093 12.7543
283 2 6.50115 14.1517 16.4368
284 2 5.99558 1.22521 17.1809
285 2 7.31425 5.08966 16.3942
286 2 5.98216 4.9494 15.5866
287 2 0.328456 1.34567 16.5122
288 2 1.65886 1.60285 17.2914
289 2 8.00404 1.37746 11.8221
290 2 8.68082 2.70282 11.8521
291 2 13.2531 4.83381 9.03285
292 2 13.2161 4.71977 10.6906
293 2 15.0303 5.16246 11.8828
294 2 13.5931 4.87737 12.8507
295 2 12.9723 4.85778 14.7753
296 2 12.6684 3.3773 14.1793
297 2 10.3585 14.074 13.9486
298 2 9.57122 0.960774 13.3772
299 2 10.9247 5.02778 13.8024
300 2 9.57527 5.00986 13.1747
301 2 12.7537 2.84215 9.79735
302 2 11.8323 1.45387 9.97207
303 2 13.1243 1.53891 14.9807
304 2 11.6645 1.41138 14.0574
305 2 8.98908 3.44914 16.4763
306 2 9.21713 4.47843 15.5258
307 2 9.12805 4.79698 10.8878
308 2 7.95557 4.78749 11.7891
309 2 9.77347 5.02285 8.79833
310 2 11.0751 4.94785 9.75996
311 2 9.58576 1.26126 10.5654
312 2 9.77352 1.25523 9.04874
313 2 13.5883 1.32746 11.0371
314 2 13.3707 1.23844 12.6985
315 2 13.5946 1.0729 17.2796
316 2 14.0951 13.9903 16.3697
317 2 13.7863 6.31496 16.2762
318 2 14.9367 5.0375 16.08
319 2 8.0008 1.47166 16.3859
320 2 9.4781 1.36576 15.6479
321 2 1.63177 8.74288 11.0919
322 2 1.25719 9.83407 11.9077
323 2 5.603 11.9875 10.4439
324 2 4.02402 11.8692 9.72991
325 2 5.94705 12.0134 12.7944
326 2 6.48069 13.3759 12.0329
327 2 4.14727 11.8943 14.2142
328 2 4.93701 10.5452 13.8269
329 2 3.46581 8.49562 14.1807
330 2 2.01929 8.28199 13.4032
331 2 2.7227 13.3096 14.1576
332 2 2.02352 12.1338 14.9423
333 2 4.94649 9.83418 9.83779
334 2 5.57634 8.62237 8.96284
335 2 5.62227 8.66164 13.4365
336 2 5.67742 8.55435 15.1365
337 2 0.487061 11.7662 16.3606
338 2 1.82801 11.955 17.1441
339 2 0.47527 11.9437 11.9885
340 2 1.72891 11.8977 12.6648
341 2 2.1856 12.0892 9.08196
342 2 1.8915 12.167 10.7235
343 2 2.46496 6.99025 9.93987
344 2 3.4069 8.15834 9.55512
345 2 7.10643 8.32172 11.7139
346 2 5.67524 8.61615 11.2026
347 2 6.49299 6.92034 16.342
348 2 7.29436 8.50247 16.4745
349 2 5.87477 11.91 17.2202
350 2 5.8149 11.9791 15.5635
351 2 1.96234 8.65799 15.6006
352 2 1.17985 9.76148 16.4134
353 2 9.35622 8.30843 12.851
354 2 9.27373 8.37583 11.0272
355 2 12.7697 10.6074 9.8223
356 2 11.6908 11.7509 9.7819
357 2 13.7805 13.6375 12.0317
358 2 13.5242 12.2402 11.0794
359 2 11.8766 11.8824 14.0696
360 2 13.3507 11.7061 13.3957
361 2 10.9256 8.2016 14.2263
362 2 10.0688 6.79284 14.2488
363 2 9.60879 11.8272 15.0224
364 2 9.65905 12.1621 13.2423
365 2 12.9619 8.54057 8.90453
366 2 13.0637 8.34573 10.4333
367 2 13.0833 8.54544 13.3179
368 2 12.4484 9.803 14.2105
369 2 9.05579 10.5745 16.441
370 2 7.94779 11.8081 16.222
371 2 7.96705 11.7621 12.0501
372 2 9.03829 10.3908 12.0841
373 2 10.0902 13.2978 9.89001
374 2 9.62391 12.3083 10.5123
375 2 10.3276 6.98427 9.68987
376 2 11.0438 8.32124 9.56273
377 2 14.7458 8.40172 11.93
378 2 13.902 7.00581 12.1439
379 2 14.9434 8.3592 16.3459
380 2 13.265 8.34313 15.6166
381 2 13.4435 12.0007 17.2471
382 2 13.4873 12.1363 15.5775
383 2 9.20364 8.63233 15.4827
384 2 9.22565 8.57106 17.2926
ITEM: TIMESTEP
400
ITEM: NUMBER OF ATOMS
384
ITEM: BOX BOUNDS pp pp pp
4.6654049692420863e-01 1.5179137033075790e+01
4.3348055518130035e-01 1.4273664734818711e+01
6.2313843955395143e-01 1.7449898590446061e+01
ITEM: ATOMS id type x y z
1 1 1.43779 1.6307 3.2891
2 1 5.02013 4.47656 1.12921
3 1 6.249 5.11149 3.27494
4 1 4.81173 4.25323 5.1539
5 1 2.54143 0.553256 5.33781
6 1 2.4352 5.1524 5.30917
7 1 4.83708 1.72777 1.21778
8 1 4.97445 1.5638 5.20331
9 1 1.18482 4.30191 7.42379
10 1 1.19531 4.33529 3.16325
11 1 2.47781 5.03385 0.982728
12 1 2.45835 0.977958 1.11722
13 1 6.20751 0.820515 3.18466
14 1 6.27638 0.835014 7.35249
15 1 6.11856 5.11811 7.14079
16 1 1.4103 1.68426 7.3243
17 1 8.59432 1.79706 3.15081
18 1 12.2128 4.1782 0.782338
19 1 13.3962 5.00409 2.9584
20 1 12.2457 4.10071 5.05529
21 1 9.89291 0.659208 5.11775
22 1 9.83819 5.12748 5.20872
23 1 12.2627 1.58734 0.981707
24 1 12.445 1.55536 5.28521
25 1 8.59393 4.12712 7.31466
26 1 8.65338 4.39725 3.01213
27 1 9.93408 5.15658 0.844173
28 1 9.77173 0.90127 1.07221
29 1 13.5957 0.905254 3.17484
30 1 13.6656 0.78653 7.52904
31 1 13.5552 5.19198 7.1158
32 1 8.71648 1.51518 7.28599
33 1 1.32786 8.50558 3.142
34 1 4.99394 11.1337 1.05448
35 1 6.23676 12.079 2.99132
36 1 4.9612 11.2553 5.12153
37 1 2.44032 7.7127 5.35296
38 1 2.35592 11.8591 5.22224
39 1 4.83625 8.56085 1.06613
40 1 4.92212 8.59639 5.17905
41 1 1.21316 11.0665 7.36154
42 1 1.27609 11.1397 3.07368
43 1 2.58747 12.2328 1.04645
44 1 2.3842 7.64322 0.960402
45 1 6.22728 7.70013 3.1037
46 1 6.09033 7.78914 7.27308
47 1 6.0047 12.0608 7.35056
48 1 1.11347 8.45937 7.31853
49 1 8.70553 8.54252 3.09651
50 1 12.2979 11.1384 1.15379
51 1 13.4628 12.2108 3.15332
52 1 12.3461 11.3873 5.24578
53 1 9.85649 7.58779 5.28271
54 1 9.75776 11.9182 5.28611
55 1 12.3723 8.59918 1.12095
56 1 12.224 8.76909 5.17219
57 1 8.48692 11.1899 7.26816
58 1 8.6933 11.1572 3.1057
59 1 9.96521 12.1581 1.04731
60 1 9.86014 7.73231 1.07932
61 1 13.5541 7.64588 3.11061
62 1 13.3327 7.7651 7.18475
63 1 13.5127 12.1628 7.4948
64 1 8.44965 8.5717 7.29179
65 1 1.39992 1.65142 11.6047
66 1 5.02991 4.27252 9.40452
67 1 6.15658 5.26824 11.5897
68 1 4.93829 4.46756 13.5734
69 1 2.55157 0.760444 13.7229
70 1 2.45811 5.24009 13.6652
71 1 5.04801 1.68846 9.61582
72 1 4.93335 1.8333 13.8025
73 1 1.15048 4.31939 15.6957
74 1 1.37747 4.18941 11.6928
75 1 2.46345 5.1328 9.62616
76 1 2.59499 0.79458 9.55026
77 1 6.21496 0.695279 11.7388
78 1 6.0858 0.799152 15.899
79 1 6.32908 5.16276 15.7196
80 1 1.2059 1.61315 15.7126
81 1 8.49845 1.68936 11.578
82 1 12.386 4.34042 9.43459
83 1 13.5672 5.11355 11.5974
84 1 12.2874 4.15108 13.5724
85 1 9.77893 0.7783 13.5667
86 1 9.75931 4.92815 13.4777
87 1 12.2196 1.73459 9.55498
88 1 12.2896 1.48925 13.7412
89 1 8.68372 4.08284 15.6408
90 1 8.50827 4.2757 11.3039
91 1 9.86746 5.1804 9.25738
92 1 9.95122 0.698629 9.5194
93 1 13.5996 0.999823 11.5532
94 1 13.5919 0.562749 15.8906
95 1 13.4939 5.17328 15.5364
96 1 8.65016 1.50395 15.7681
97 1 1.20488 8.73637 11.5562
98 1 4.85298 11.2507 9.49847
99 1 6.16065 11.9958 11.6483
100 1 4.9019 11.2322 13.71
101 1 2.39487 7.71498 13.58
102 1 2.42348 12.0434 13.5883
103 1 4.7586 8.62208 9.42265
104 1 4.7223 8.68542 13.5983
105 1 1.3898 11.0549 15.8142
106 1 1.24424 11.3774 11.475
107 1 2.43558 12.106 9.39932
108 1 2.30346 7.68903 9.49209
109 1 6.07711 7.85939 11.5309
110 1 6.20885 7.75654 15.759
111 1 6.19143 12.0672 15.7702
112 1 1.2865 8.55946 15.7798
113 1 8.68228 8.64878 11.455
114 1 12.2087 11.265 9.44285
115 1 13.5659 12.2292 11.477
116 1 12.2017 11.2891 13.499
117 1 9.79445 7.59756 13.7304
118 1 9.70082 12.0736 13.501
119 1 12.2753 8.57522 9.4916
120 1 12.2598 8.60228 13.5693
121 1 8.67813 11.3102 15.81
122 1 8.58158 11.1139 11.4892
123 1 9.74072 12.0167 9.49135
124 1 9.77889 7.72914 9.44872
125 1 13.5774 7.69369 11.529
126 1 13.4774 7.81936 15.6849
127 1 13.5734 11.7849 15.7035
128 1 8.54105 8.59956 15.79
129 2 0.476777 1.29764 3.34244
130 2 1.35202 2.64683 3.21942
131 2 5.68759 4.65294 1.82939
132 2 5.73869 4.64118 17.191
133 2 5.47999 4.73499 4.03013
134 2 6.16967 6.21558 3.30161
135 2 3.79489 4.73675 5.29833
136 2 5.47363 4.63863 6.11506
137 2 2.02308 0.969458 4.48905
138 2 3.35754 0.920054 5.33937
139 2 1.88456 5.00523 6.13532
140 2 2.34079 6.28412 5.40928
141 2 5.31526 1.37539 2.04755
142 2 4.97474 2.79157 1.00222
143 2 4.70256 2.51648 5.12197
144 2 5.20659 1.45243 6.31451
145 2 1.56353 4.62237 8.30529
146 2 1.28862 3.3112 7.46963
147 2 1.55267 4.64989 3.96331
148 2 1.67765 4.70495 2.51362
149 2 3.41163 4.77308 0.958614
150 2 2.45616 5.99637 1.1189
151 2 3.24842 1.4265 1.12379
152 2 2.04266 1.20688 1.88256
153 2 5.62336 1.17418 4.12715
154 2 6.28416 13.6538 3.22065
155 2 5.97619 1.11602 8.30098
156 2 6.47103 13.6738 7.35797
157 2 7.09248 4.85844 7.17399
158 2 6.05235 6.13791 6.97484
159 2 1.75931 1.12126 6.32189
160 2 0.531562 1.0328 7.29658
161 2 8.61537 2.93455 3.25743
162 2 7.63994 1.43047 3.19191
163 2 11.9491 3.30677 0.808448
164 2 12.572 4.35634 16.7365
165 2 12.8867 4.62999 2.19441
166 2 14.3151 4.60318 2.77548
167 2 12.7292 4.42867 4.28687
168 2 11.4286 4.65871 5.20299
169 2 10.6395 1.21046 5.14297
170 2 9.38964 1.11437 4.32177
171 2 9.69758 6.14673 5.17912
172 2 9.29896 4.93109 4.26233
173 2 11.2261 1.15165 1.0719
174 2 12.6602 1.48931 1.76421
175 2 12.3722 2.55576 5.34609
176 2 12.9584 1.40468 6.09981
177 2 8.93802 4.37163 6.34977
178 2 8.55173 3.1413 7.32425
179 2 7.74466 4.84604 3.081
180 2 9.12671 4.74566 2.16127
181 2 9.33836 4.77232 16.929
182 2 10.8849 4.8131 0.887574
183 2 9.26433 1.19881 17.1933
184 2 9.42762 1.37685 1.81675
185 2 13.333 1.1929 4.09161
186 2 13.4587 13.7961 3.15237
187 2 13.1661 1.12004 8.23185
188 2 13.6671 13.5883 7.67879
189 2 13.2383 4.50622 6.54781
190 2 14.598 5.02354 7.53625
191 2 7.82695 1.29704 7.14668
192 2 9.35116 1.07563 6.56581
193 2 1.95636 8.33647 3.92639
194 2 1.22451 9.46786 3.1892
195 2 4.00553 11.5083 0.838464
196 2 4.80287 10.2058 1.01305
197 2 7.207 11.8263 2.99528
198 2 5.77219 11.6185 2.14541
199 2 5.55194 11.5442 4.43018
200 2 5.21502 11.5243 6.00754
201 2 1.89617 7.8514 6.1115
202 2 3.4469 7.99309 5.48621
203 2 2.304 12.8378 5.2311
204 2 3.40177 11.5959 5.27494
205 2 3.96379 8.04891 1.19122
206 2 5.27844 8.33982 17.0891
207 2 4.9408 9.5895 4.89816
208 2 5.50416 8.06284 4.50206
209 2 1.78667 11.3492 6.51351
210 2 0.920867 10.2407 7.46905
211 2 14.9952 11.6711 3.13185
212 2 1.79152 11.5519 3.86009
213 2 1.84936 12.0228 1.6949
214 2 2.54925 13.2381 1.11943
215 2 2.00926 8.08006 1.63215
216 2 1.9639 7.8928 16.8044
217 2 7.29878 8.00942 3.09422
218 2 5.84173 8.04986 2.05884
219 2 5.65654 8.0416 6.42942
220 2 7.02439 8.38404 7.25644
221 2 5.55262 11.7439 8.17506
222 2 6.97779 11.748 7.40497
223 2 14.9798 8.03401 7.26755
224 2 1.41434 8.4763 8.52977
225 2 9.11234 8.30614 4.07171
226 2 9.16477 8.09419 2.20168
227 2 11.3267 11.6684 1.00742
228 2 12.3478 10.1812 1.05413
229 2 13.0149 11.8186 2.45585
230 2 13.1615 11.6842 4.03594
231 2 12.9245 11.8011 6.11525
232 2 11.2853 11.4647 5.24823
233 2 10.8033 7.98751 5.21738
234 2 9.2914 8.09639 5.94706
235 2 9.99598 12.9879 5.22958
236 2 9.543 11.5591 4.48557
237 2 12.9028 8.01394 1.86855
238 2 12.6138 8.2651 16.9678
239 2 12.7572 8.29628 4.52311
240 2 12.3147 9.78311 5.00156
241 2 9.04533 11.3772 8.08985
242 2 8.77173 11.5964 6.6072
243 2 8.59649 10.1972 3.06936
244 2 9.27085 11.6588 2.39951
245 2 9.76558 13.1933 0.988635
246 2 9.39321 11.7778 17.0804
247 2 10.9167 8.11797 0.811987
248 2 9.97566 6.57704 0.921744
249 2 14.474 7.79911 3.35328
250 2 13.6481 6.67214 3.10692
251 2 13.4821 6.78306 7.24333
252 2 13.0787 8.27505 6.37647
253 2 14.4019 11.6652 7.4812
254 2 13.0267 11.6573 8.46861
255 2 8.42939 9.663 7.46678
256 2 9.04374 8.31692 8.10047
257 2 1.84825 1.38696 10.7643
258 2 15.136 1.49852 11.6248
259 2 5.27607 4.79995 10.1676
260 2 5.10765 4.74549 8.46045
261 2 6.10994 6.35613 11.3695
262 2 5.64257 5.12876 12.5548
263 2 3.76334 4.5206 13.5097
264 2 5.04106 3.243 13.6204
265 2 2.1661 1.09922 12.8244
266 2 1.95181 1.08042 14.4735
267 2 2.07144 4.89494 14.4926
268 2 2.37638 6.27061 13.5896
269 2 4.11627 1.21413 9.38992
270 2 4.98476 2.70626 9.53918
271 2 3.97822 1.56192 13.9458
272 2 5.42809 1.30628 14.5164
273 2 1.70096 4.56463 16.4933
274 2 1.27031 3.34666 15.7694
275 2 1.86132 4.44483 12.5352
276 2 1.62506 3.30948 11.7195
277 2 1.97908 4.83136 10.4054
278 2 3.46398 4.7516 9.60396
279 2 2.26107 1.16424 8.63807
280 2 2.72317 13.6683 9.28751
281 2 5.92049 1.15961 10.908
282 2 5.83522 1.2432 12.5122
283 2 6.2637 13.6459 15.98
284 2 5.58568 1.10737 16.6895
285 2 7.18629 4.65845 15.6391
286 2 5.99348 4.79473 14.9009
287 2 14.9929 1.05245 15.6479
288 2 1.55478 1.34585 16.6648
289 2 7.58596 1.57281 11.9217
290 2 8.64377 2.65356 11.5056
291 2 12.75 4.49867 8.54658
292 2 12.9091 4.58211 10.3618
293 2 14.6452 4.82811 11.462
294 2 13.2243 4.80224 12.2647
295 2 12.8388 4.62121 14.2461
296 2 12.2193 3.167 13.7706
297 2 9.74033 13.7135 13.4107
298 2 9.29154 1.08997 12.7344
299 2 10.6433 4.5802 13.3362
300 2 9.32805 4.89673 12.5402
301 2 12.0255 2.60189 9.36999
302 2 11.288 1.3262 9.78856
303 2 12.7402 1.29797 14.4738
304 2 11.3079 1.31568 13.6876
305 2 8.42877 3.15769 15.5196
306 2 9.10642 4.51471 14.6915
307 2 9.12024 4.77928 10.7337
308 2 7.53677 4.7721 11.4237
309 2 9.39463 4.867 8.42454
310 2 10.8365 5.0553 9.1467
311 2 9.4474 1.13645 10.267
312 2 9.47111 1.11206 8.74501
313 2 13.172 1.27791 10.7493
314 2 13.2794 1.39559 12.3985
315 2 13.3486 1.11982 16.7171
316 2 13.3423 13.3545 15.8304
317 2 13.2967 6.21035 15.6018
318 2 14.3591 4.97646 15.5738
319 2 7.51331 1.12613 15.7292
320 2 9.17369 1.23237 14.9528
321 2 1.66145 8.26617 10.7643
322 2 1.11985 9.68129 11.5721
323 2 5.41916 11.3532 10.4403
324 2 3.85128 11.3079 9.66829
325 2 5.50941 11.6418 12.4992
326 2 6.20737 12.9654 11.8462
327 2 3.9567 11.4919 13.727
328 2 4.76369 10.1898 13.679
329 2 3.36716 8.04828 13.5731