ITEM: TIMESTEP
0
ITEM: NUMBER OF ATOMS
384
ITEM: BOX BOUNDS pp pp pp
-3.1180958401302572e-01 1.5311809584013066e+01
-3.1180958401302572e-01 1.5311809584013066e+01
-3.1180958401302572e-01 1.5311809584013066e+01
ITEM: ATOMS id type x y z
1 1 4.57679 5.50123 13.6944
2 1 14.8875 3.66367 14.1079
3 1 8.20115 10.8513 3.91518
4 1 1.55859 4.11103 4.68534
5 1 14.0046 11.0534 10.4291
6 1 10.1562 -0.0244194 -0.0179537
7 1 13.1461 9.78511 5.92123
8 1 3.48566 13.6848 7.87681
9 1 3.32305 6.30373 3.20589
10 1 5.30735 8.37688 2.36991
11 1 13.7801 6.32188 1.70807
12 1 0.692367 10.1945 14.1186
13 1 15.0627 5.43363 4.6639
14 1 9.98456 5.97612 7.92121
15 1 12.4056 7.19481 3.96576
16 1 9.83562 2.64919 6.79506
17 1 4.60459 4.17249 11.4106
18 1 7.55062 10.3381 11.1669
19 1 8.27543 1.89543 14.4455
20 1 5.83253 14.0038 0.549654
21 1 -0.277952 13.5963 10.2649
22 1 12.6457 2.09652 6.28487
23 1 10.7129 7.40871 14.2399
24 1 2.2119 7.88472 6.40809
25 1 10.4542 9.69036 5.97773
26 1 -0.282536 8.22967 4.81222
27 1 1.6652 11.2607 4.20606
28 1 6.17365 -0.094545 10.725
29 1 12.1932 8.4542 0.381712
30 1 2.29814 6.67565 12.652
31 1 3.74006 5.65533 5.77839
32 1 7.64075 12.3667 7.75101
33 1 2.57949 3.81144 2.08856
34 1 3.31976 13.3432 0.0677147
35 1 -0.0967938 5.37115 7.46928
36 1 11.1426 14.5448 7.59235
37 1 1.26174 14.8074 2.57217
38 1 6.41618 0.335516 13.3898
39 1 0.207637 9.92258 2.18818
40 1 12.6731 13.1901 12.8323
41 1 1.29363 11.9761 7.9846
42 1 13.2286 14.8362 0.439531
43 1 -0.123887 15.1905 5.01064
44 1 8.80795 12.7708 12.0788
45 1 12.4172 6.75949 6.79319
46 1 9.49869 10.6014 8.40823
47 1 10.544 10.9934 13.3575
48 1 8.99001 12.8372 5.44675
49 1 4.04829 1.51716 14.6149
50 1 6.69928 13.1999 13.7041
51 1 4.43379 6.10378 9.26553
52 1 11.4216 -0.0969869 13.0672
53 1 8.10878 14.4288 3.40524
54 1 4.3962 2.37166 3.28729
55 1 12.1316 11.4523 8.45349
56 1 8.7458 10.8517 -0.213292
57 1 1.53862 1.7361 8.48855
58 1 8.69585 5.89847 11.616
59 1 1.22107 9.19196 8.49846
60 1 10.635 10.5731 3.14594
61 1 11.4957 4.51089 15.2148
62 1 10.9209 6.7156 10.446
63 1 4.94638 10.4223 10.3546
64 1 7.94749 8.55464 1.09697
65 1 14.5919 7.80968 8.4877
66 1 5.26248 14.7619 3.62401
67 1 5.62202 2.26942 6.97039
68 1 1.29568 -0.0251437 10.348
69 1 11.6689 12.7598 1.5126
70 1 8.10674 4.34492 9.29769
71 1 15.2574 12.5827 5.71394
72 1 5.13758 11.4238 7.95676
73 1 0.807368 7.59384 14.5622
74 1 1.07308 4.35508 11.6836
75 1 -0.103901 0.899318 12.6958
76 1 12.4336 12.7126 5.99741
77 1 6.5124 0.898083 1.44852
78 1 5.22926 7.74021 7.34722
79 1 4.69818 3.85809 0.25821
80 1 14.6318 1.53081 0.260033
81 1 8.7843 1.26425 2.88569
82 1 10.1715 2.86217 10.2074
83 1 1.97586 4.56417 8.94346
84 1 12.6683 15.2799 4.82665
85 1 10.1623 4.44247 4.67024
86 1 8.26116 6.29332 15.2182
87 1 2.75694 2.33071 12.3211
88 1 10.1168 15.0402 10.6766
89 1 0.0214213 11.8389 0.424274
90 1 9.92368 3.73613 12.9889
91 1 7.93039 3.8304 3.09944
92 1 3.45334 12.7245 2.72154
93 1 13.7442 3.34545 8.32257
94 1 1.06378 7.50528 1.70711
95 1 13.5608 9.51663 12.896
96 1 6.16563 2.34739 9.6158
97 1 6.00658 4.12469 4.96415
98 1 13.0409 2.11594 12.6389
99 1 9.44842 7.22402 5.61094
100 1 3.08802 8.31472 10.412
101 1 4.27645 12.564 12.0172
102 1 0.247817 12.7339 12.6695
103 1 6.92237 8.32243 4.80264
104 1 10.2096 9.4039 11.0142
105 1 8.10819 14.6608 9.11245
106 1 0.724807 14.5893 14.8093
107 1 7.38606 3.87893 0.612739
108 1 13.59 6.17467 11.3541
109 1 6.57455 9.82429 14.0409
110 1 6.72525 7.05567 13.1783
111 1 3.66994 10.3273 5.96103
112 1 1.66543 1.60839 5.77048
113 1 9.05834 13.0173 1.11863
114 1 4.11235 0.213829 6.02437
115 1 10.3679 8.11545 2.36753
116 1 3.8208 14.5044 10.4834
117 1 6.27696 11.8524 2.07137
118 1 3.1417 11.1769 14.1451
119 1 12.971 3.21476 1.56998
120 1 12.4061 13.5738 10.1924
121 1 14.0948 6.56232 13.8874
122 1 11.4172 0.689063 2.37021
123 1 1.65778 1.52802 1.12949
124 1 7.74882 0.714644 6.86752
125 1 13.0368 10.8806 0.0461404
126 1 14.1536 3.59273 10.8941
127 1 12.9937 3.74289 4.44237
128 1 4.93288 10.2326 0.481908
129 2 4.52916 4.87676 12.9369
130 2 4.69703 5.06241 14.547
131 2 14.6886 4.58995 14.3163
132 2 0.0945933 3.63697 13.6264
133 2 7.74221 10.0755 4.24889
134 2 8.99342 10.7228 3.34745
135 2 0.788771 4.72927 4.53377
136 2 1.81069 3.95163 3.77685
137 2 14.4008 11.9252 10.4575
138 2 13.9069 10.7269 11.3647
139 2 10.6725 0.201823 0.765773
140 2 9.47367 0.652849 -0.0632908
141 2 13.5922 9.97565 6.76473
142 2 13.2152 10.5455 5.32572
143 2 3.67781 14.0964 8.7488
144 2 3.53939 14.3835 7.27865
145 2 3.09567 5.45978 2.78243
146 2 3.60518 6.19337 4.09913
147 2 5.08995 9.05489 1.76222
148 2 4.54185 7.79795 2.5309
149 2 13.4381 6.67871 2.59019
150 2 14.7355 6.25337 1.79471
151 2 0.77524 9.18308 14.2443
152 2 0.388115 10.6288 14.9234
153 2 14.1894 4.91997 4.56536
154 2 14.9228 6.4107 4.60147
155 2 10.8762 5.93786 7.61697
156 2 9.58879 6.53361 7.20672
157 2 12.1014 7.06547 4.8105
158 2 11.5829 7.27566 3.48345
159 2 9.70669 3.06202 7.62541
160 2 9.96186 3.35305 6.0781
161 2 3.89127 3.51534 11.556
162 2 5.31618 3.63484 11.0911
163 2 8.36256 9.80951 10.99
164 2 7.91946 11.2623 11.3115
165 2 7.80256 2.56448 14.9346
166 2 7.58248 1.21916 14.1315
167 2 6.10462 13.5421 -0.242407
168 2 4.85977 13.825 0.528199
169 2 14.4101 13.8153 10.1623
170 2 -0.0704958 13.4422 11.1966
171 2 11.7088 2.1063 6.54679
172 2 12.6961 1.18401 5.89058
173 2 10.9921 7.5299 13.3514
174 2 11.2636 8.01166 14.7268
175 2 1.57728 7.89927 5.7134
176 2 1.87051 8.36741 7.16573
177 2 11.4302 9.71213 6.20698
178 2 10.3486 10.1292 5.1128
179 2 14.4149 8.445 5.04536
180 2 0.00164071 8.8165 4.03796
181 2 1.02838 11.8189 4.67407
182 2 2.36173 10.8675 4.79517
183 2 6.32838 0.734699 10.265
184 2 5.21972 -0.301306 10.6492
185 2 12.568 9.37229 0.310345
186 2 12.8634 7.95827 0.824663
187 2 2.56428 7.41349 12.0109
188 2 3.14156 6.4193 13.0935
189 2 3.16723 6.41343 5.9805
190 2 3.10221 4.98312 5.63197
191 2 7.73547 13.1577 8.33842
192 2 8.06104 12.6116 6.87934
193 2 1.75422 3.38105 1.7562
194 2 3.25148 3.1727 2.47226
195 2 3.15037 12.6412 14.9757
196 2 3.16776 12.9566 0.983888
197 2 0.0720948 5.37286 6.52711
198 2 -0.245356 6.34024 7.61737
199 2 11.6512 14.8569 8.35832
200 2 11.802 13.9131 7.23812
201 2 2.07792 14.3411 2.56175
202 2 1.50629 0.044002 2.08403
203 2 6.3968 14.9261 13.4491
204 2 6.20534 0.425411 12.4267
205 2 0.660795 9.1318 1.85703
206 2 0.694078 10.391 2.87312
207 2 12.3708 14.0972 13.0916
208 2 12.1841 12.5232 13.366
209 2 2.09163 12.5603 7.87369
210 2 0.901668 12.2269 8.80367
211 2 13.6981 0.109016 0.335681
212 2 13.4443 14.3386 15.279
213 2 14.5376 15.2076 4.93591
214 2 0.228484 14.9795 4.13145
215 2 9.24837 13.4527 11.622
216 2 9.52013 12.2417 12.5392
217 2 12.875 7.30125 7.44426
218 2 13.1287 6.09272 6.70831
219 2 8.70364 11.2231 8.31889
220 2 9.67729 10.2938 7.51515
221 2 10.4955 10.2933 12.7118
222 2 10.0325 10.7711 14.1408
223 2 9.87115 13.0955 5.5737
224 2 8.95145 12.0108 4.93614
225 2 4.74251 0.928236 14.2575
226 2 3.48888 1.81195 13.8977
227 2 7.56401 13.1017 13.1985
228 2 6.02622 12.6782 13.2435
229 2 3.65548 5.64787 8.88705
230 2 4.53028 5.65688 10.1121
231 2 10.7483 -0.0654962 13.7661
232 2 11.7812 0.808853 13.0779
233 2 8.36482 -0.291862 3.46612
234 2 8.34757 14.0066 4.25098
235 2 5.1094 1.81781 2.95108
236 2 4.6411 2.96006 4.03817
237 2 12.5339 11.0417 9.22128
238 2 11.1841 11.2095 8.49369
239 2 8.60742 10.312 0.576946
240 2 8.69537 11.7883 0.0583599
241 2 1.42282 1.68337 7.50469
242 2 1.60998 2.65673 8.73322
243 2 8.87953 5.11923 12.1645
244 2 8.03029 6.40716 12.1505
245 2 1.95332 8.95172 9.16853
246 2 1.28006 10.1574 8.3047
247 2 11.2632 11.2403 2.79611
248 2 10.7957 9.70539 2.72449
249 2 11.5653 5.40273 -0.288322
250 2 11.1896 4.32648 14.2564
251 2 10.4204 6.65681 9.62663
252 2 10.2607 6.46258 11.0571
253 2 5.87632 10.1769 10.5904
254 2 4.94364 10.8143 9.46912
255 2 7.91802 7.6928 0.604333
256 2 7.17835 8.74025 1.63464
257 2 14.2008 7.92642 9.35992
258 2 -0.267797 8.44072 8.55252
259 2 6.16366 14.3915 3.8125
260 2 4.75946 14.0077 3.26281
261 2 6.35085 1.60272 6.90857
262 2 4.84301 1.75402 6.76165
263 2 1.34137 0.662419 9.62968
264 2 0.817817 14.7755 10.0578
265 2 10.8342 13.0339 1.10914
266 2 12.2496 13.5788 1.43103
267 2 7.99168 4.93257 10.0429
268 2 8.59208 4.87508 8.55834
269 2 -0.0863874 13.5026 5.64494
270 2 0.00602987 12.1735 6.56287
271 2 6.0476 11.6847 7.84187
272 2 4.65027 12.2574 7.8746
273 2 -0.10786 7.21382 14.4417
274 2 1.40859 7.20909 13.8607
275 2 1.10879 5.19843 12.1297
276 2 0.142322 4.18446 11.4107
277 2 0.192301 0.569522 11.8253
278 2 0.262058 0.216297 13.3227
279 2 13.325 12.966 5.76917
280 2 12.474 12.1815 6.79075
281 2 6.96454 1.33987 0.72514
282 2 6.22808 -0.0168944 1.14781
283 2 5.28424 6.95392 7.95734
284 2 5.69738 8.44349 7.79401
285 2 4.59695 2.96295 -0.156096
286 2 4.05776 3.8329 1.0606
287 2 14.2623 2.20361 0.861912
288 2 14.7961 2.02476 15.1013
289 2 7.90736 0.984376 2.41964
290 2 8.42535 2.08554 3.23522
291 2 9.33834 3.30929 9.83257
292 2 10.1754 1.88055 10.1119
293 2 1.75381 4.52695 9.90946
294 2 1.11552 4.78978 8.54253
295 2 12.2645 0.0873025 4.07993
296 2 12.0334 14.6435 5.15054
297 2 9.97133 5.30379 5.02216
298 2 9.51596 4.30903 3.95105
299 2 9.11176 6.41377 14.7882
300 2 7.57568 6.54 14.599
301 2 2.07189 2.92609 11.9449
302 2 2.69894 1.52435 11.845
303 2 10.8501 14.3815 10.4642
304 2 10.5118 -0.206863 11.478
305 2 0.274248 12.7719 0.61942
306 2 0.108425 11.2293 1.22179
307 2 9.70727 2.84376 13.3266
308 2 10.3129 3.49932 12.1129
309 2 7.16744 3.93944 3.6373
310 2 7.68964 3.77425 2.12389
311 2 2.7812 12.2345 3.34142
312 2 4.17512 12.108 2.65722
313 2 13.4252 2.63657 7.76521
314 2 14.4885 3.85196 7.85505
315 2 1.16553 7.50623 0.684607
316 2 1.80702 6.9489 2.01705
317 2 14.4305 9.58843 13.243
318 2 13.0187 10.0336 13.4694
319 2 5.70123 2.57075 8.68482
320 2 6.80813 3.05178 9.52933
321 2 5.35787 4.80808 5.12533
322 2 5.96938 3.53575 5.71789
323 2 13.0854 2.74416 13.3668
324 2 13.871 1.59988 12.7008
325 2 8.54415 7.16809 5.28465
326 2 9.76316 8.11779 5.62097
327 2 3.5805 7.58031 10.0651
328 2 3.76188 9.05652 10.3377
329 2 4.55808 11.8882 11.3243
330 2 3.56374 12.075 12.5347
331 2 0.334551 11.7965 12.6005
332 2 0.24849 12.8839 13.5924
333 2 6.35726 8.22802 5.65351
334 2 6.38531 8.12785 4.02112
335 2 10.214 9.5859 10.0692
336 2 10.6644 8.57403 11.1276
337 2 8.95214 14.8857 9.64428
338 2 7.3584 14.7538 9.70982
339 2 0.591563 15.0693 0.0182509
340 2 1.70203 14.3696 14.7724
341 2 6.4741 3.89198 0.306924
342 2 7.8908 4.74294 0.474307
343 2 13.7745 5.25403 11.174
344 2 12.6407 6.3597 11.1641
345 2 6.61181 10.3071 13.1711
346 2 7.38294 10.2018 14.4287
347 2 5.92965 6.53312 13.3142
348 2 6.65131 8.00804 13.4902
349 2 4.1508 10.9057 6.58172
350 2 3.72612 9.43762 6.27968
351 2 0.960879 1.05271 5.33877
352 2 1.48012 2.49213 5.40543
353 2 8.71011 13.4532 1.93204
354 2 8.99593 13.78 0.520382
355 2 3.28533 0.709593 5.89467
356 2 4.52263 -0.105961 5.1872
357 2 10.8957 8.12501 1.5533
358 2 9.392 8.09909 2.00114
359 2 2.85608 14.8006 10.6062
360 2 3.90293 13.7417 11.0449
361 2 6.48734 12.6937 1.54518
362 2 7.04029 11.6822 2.67807
363 2 2.24681 10.7375 14.3261
364 2 3.668 10.6767 14.8241
365 2 12.3482 3.69431 0.972113
366 2 13.2921 3.83378 2.19605
367 2 12.5073 12.8061 9.60602
368 2 12.5354 13.311 11.1419
369 2 13.9506 6.55755 12.8999
370 2 13.4462 7.1125 14.3857
371 2 11.8334 1.45816 2.05064
372 2 10.4376 0.894116 2.52875
373 2 0.844146 1.54638 0.605455
374 2 2.39804 1.38307 0.478242
375 2 7.77884 0.12269 7.66547
376 2 8.60235 1.23456 6.91956
377 2 12.4122 11.5105 0.551261
378 2 13.9301 11.2794 0.187093
379 2 13.8259 3.47873 9.96028
380 2 13.5184 3.1733 11.5056
381 2 12.9666 3.11167 5.2382
382 2 12.0906 4.05916 4.29522
383 2 5.48443 10.7696 1.07083
384 2 5.47524 10.05 -0.286949
ITEM: TIMESTEP
200
ITEM: NUMBER OF ATOMS
384
ITEM: BOX BOUNDS pp pp pp
-2.1868351273538700e-01 1.5218683512735430e+01
-2.1868351273538700e-01 1.5218683512735430e+01
-2.1868351273538700e-01 1.5218683512735430e+01
ITEM: ATOMS id type x y z
1 1 4.50517 5.51771 13.1296
2 1 14.5011 3.88966 13.8577
3 1 7.56957 10.6866 3.78531
4 1 1.70023 3.78067 4.5967
5 1 13.6679 10.1973 10.3091
6 1 9.97671 0.267483 -0.0491482
7 1 13.3212 9.62713 6.08144
8 1 3.36196 13.5431 7.58842
9 1 3.17363 6.50451 2.84078
10 1 5.48545 7.89807 2.62203
11 1 13.7441 6.56155 1.88626
12 1 0.582465 10.0319 13.8128
13 1 14.9382 5.39716 4.89873
14 1 9.86905 5.93369 7.84757
15 1 12.2015 6.98001 4.05045
16 1 9.89188 2.73525 6.77846
17 1 4.70833 3.92146 11.2566
18 1 7.3457 10.3818 11.2289
19 1 8.39582 1.91405 14.3803
20 1 5.8129 13.8954 0.575905
21 1 -0.0961919 13.3211 10.0474
22 1 12.5555 1.85795 6.2641
23 1 10.6825 7.11775 14.1986
24 1 1.97535 7.83148 6.33421
25 1 10.4001 9.24445 5.84373
26 1 15.1128 8.16756 4.7223
27 1 1.81227 11.4339 4.39868
28 1 5.93035 0.293516 10.5568
29 1 12.249 8.05338 0.302111
30 1 2.17621 6.48414 12.301
31 1 3.54596 5.73591 5.34026
32 1 7.68583 11.9707 7.78459
33 1 3.20176 3.56369 2.19091
34 1 3.05758 13.2345 0.13702
35 1 -0.0261337 5.35847 7.57561
36 1 10.6991 14.5504 7.31558
37 1 1.17208 14.5284 2.23556
38 1 6.11169 0.426553 13.3102
39 1 0.48554 9.87854 2.83234
40 1 12.2245 13.0802 12.5847
41 1 0.943407 12.2796 8.01805
42 1 13.5127 14.2886 0.213108
43 1 -0.0965631 14.9899 4.51417
44 1 8.50675 12.7704 11.7683
45 1 12.4985 6.34925 6.79906
46 1 9.67931 10.3141 8.19035
47 1 10.3727 11.0138 12.8068
48 1 8.79385 12.4106 5.4041
49 1 3.95341 1.7093 14.1937
50 1 6.41524 13.2174 13.4594
51 1 4.11775 5.88552 9.30582
52 1 11.1712 -0.0117812 13.0796
53 1 7.56437 14.2127 3.51642
54 1 4.7198 2.05915 3.57743
55 1 12.2274 11.2508 8.2978
56 1 8.89491 10.4742 -0.135161
57 1 1.73239 1.73653 8.31604
58 1 8.45258 5.58258 11.536
59 1 1.22291 9.08052 8.55287
60 1 10.4133 10.4053 3.35579
61 1 11.608 4.37999 14.831
62 1 10.4968 6.86911 10.475
63 1 4.9145 10.2126 10.128
64 1 7.97702 8.05675 1.34665
65 1 14.3591 7.55505 8.61815
66 1 4.89622 14.7145 3.70833
67 1 5.74399 1.9654 6.82132
68 1 1.34274 0.424124 10.3724
69 1 11.47 12.4962 1.64036
70 1 8.31815 4.26833 9.31521
71 1 15.2109 12.5957 5.67725
72 1 4.92798 11.3192 7.61717
73 1 0.934923 7.4656 14.3481
74 1 1.0615 4.24381 11.8177
75 1 -0.0443313 0.583696 12.7629
76 1 12.4067 12.5126 5.96498
77 1 6.20808 1.10358 1.40031
78 1 5.60259 7.99545 7.00574
79 1 4.64383 4.04261 -0.196649
80 1 14.5733 1.71927 0.303828
81 1 8.51002 1.29197 2.68043
82 1 10.1362 2.57886 10.2515
83 1 1.83112 4.33558 8.87331
84 1 12.6747 15.0304 4.24966
85 1 10.2605 4.8185 4.92848
86 1 8.30764 6.29941 14.9499
87 1 2.7442 2.21379 12.039
88 1 9.99325 14.7265 10.8114
89 1 -0.162584 11.247 0.709114
90 1 9.73046 3.58775 12.7708
91 1 7.91347 3.88962 3.49908
92 1 3.37305 12.7033 2.69028
93 1 13.4777 3.53969 8.16597
94 1 0.766887 7.54806 1.70609
95 1 13.4237 10.0163 12.8123
96 1 6.17598 2.72134 9.2873
97 1 5.84633 3.86226 5.13208
98 1 13.0026 1.86066 12.7374
99 1 9.00729 7.00766 5.41972
100 1 3.09923 8.21096 10.2636
101 1 4.39135 12.2922 12.0123
102 1 0.561301 12.7318 12.4449
103 1 6.8162 8.52699 4.71081
104 1 9.74082 9.47744 10.7497
105 1 7.87142 14.5129 8.97725
106 1 0.771381 14.4016 14.5882
107 1 7.42817 3.96992 0.393145
108 1 13.3841 6.61438 10.8619
109 1 6.69937 9.58924 13.6748
110 1 6.67894 6.94738 13.0777
111 1 3.58788 9.81069 5.57506
112 1 1.47841 1.14503 5.68731
113 1 9.09626 13.2764 1.06837
114 1 3.94617 0.182129 6.12264
115 1 10.4644 8.03172 2.27609
116 1 3.68749 14.2301 10.354
117 1 5.68997 11.5922 2.23007
118 1 3.19709 11.0458 14.1386
119 1 12.3838 2.90093 1.58538
120 1 12.4929 13.6564 10.0319
121 1 13.9407 6.50939 13.614
122 1 11.1518 0.884448 2.49333
123 1 1.74405 1.38029 1.05712
124 1 8.04678 0.70626 6.68068
125 1 12.6653 10.6514 -0.200763
126 1 13.9975 3.84535 10.7763
127 1 12.5763 4.18217 4.02404
128 1 4.92175 9.70049 0.432882
129 2 4.76402 4.86918 12.2586
130 2 4.53802 5.27314 14.1397
131 2 14.1103 4.73924 13.7037
132 2 -0.107215 3.85768 13.3366
133 2 7.0307 9.93612 4.2404
134 2 8.45971 10.4683 3.58105
135 2 0.931089 4.23878 4.34914
136 2 2.21144 3.67142 3.66118
137 2 14.2791 10.7954 10.1417
138 2 13.5578 10.1151 11.3284
139 2 10.4545 0.696808 0.671918
140 2 9.40856 0.931276 15.0451
141 2 13.4013 9.63031 7.06948
142 2 12.9908 10.522 5.86454
143 2 3.48825 13.9166 8.51289
144 2 3.52244 14.3244 6.85861
145 2 3.14761 5.76796 2.14852
146 2 3.29267 6.1516 3.8217
147 2 5.27802 8.41479 1.88943
148 2 4.72244 7.18697 2.57239
149 2 13.2702 6.77923 2.53186
150 2 14.5575 7.01694 1.98068
151 2 0.922244 9.16209 13.796
152 2 0.424262 10.4074 14.7843
153 2 14.1153 5.01746 4.54041
154 2 14.941 6.33864 4.80154
155 2 10.7742 6.06522 7.50353
156 2 9.16987 6.55014 7.40149
157 2 12.6928 7.00504 4.93265
158 2 11.615 7.79227 3.56755
159 2 9.717 3.12697 7.61933
160 2 9.93303 3.57665 6.37297
161 2 3.98205 3.23124 11.4411
162 2 5.24475 3.43842 10.7228
163 2 8.25666 9.97998 11.105
164 2 7.63392 11.3375 11.3169
165 2 8.1018 2.74751 14.8451
166 2 7.41631 1.81072 13.85
167 2 6.28783 13.4953 15.1475
168 2 4.97917 13.6285 0.362129
169 2 14.527 13.5675 9.90158
170 2 0.164208 12.989 11.075
171 2 11.5024 1.94446 6.27298
172 2 12.5101 1.09148 5.74891
173 2 10.8453 7.62203 13.3158
174 2 11.2747 7.5721 14.9129
175 2 1.19539 7.7191 5.68215
176 2 1.49616 8.18982 7.08015
177 2 11.3841 9.19552 5.95091
178 2 10.5269 9.66154 5.0189
179 2 14.3619 8.69871 5.19838
180 2 0.147238 8.55357 3.92905
181 2 0.952495 11.7493 4.9246
182 2 2.55833 10.9246 4.95945
183 2 6.0776 1.08062 9.98578
184 2 5.07562 -0.0990535 10.5436
185 2 12.5199 8.86981 -0.065294
186 2 12.9907 7.3686 0.860005
187 2 2.16801 7.18078 11.6448
188 2 3.18434 6.24975 12.4823
189 2 2.91341 6.43059 5.74263
190 2 2.87891 5.09404 5.11054
191 2 7.81709 12.8563 8.38449
192 2 7.95422 12.2058 6.99541
193 2 2.61184 2.78251 1.79755
194 2 3.78757 3.24034 2.76963
195 2 3.07106 12.4161 14.9977
196 2 2.91569 13.166 1.12813
197 2 15.1107 5.33538 6.54651
198 2 15.1073 6.30092 7.73062
199 2 11.3054 -0.0855271 7.38323
200 2 11.1092 13.8265 6.83885
201 2 2.05568 14.2034 2.34806
202 2 1.29262 0.0485472 1.88987
203 2 6.12881 14.8346 13.4489
204 2 5.82356 0.242294 12.3829
205 2 0.956093 9.26804 2.21744
206 2 1.1164 10.4134 3.52547
207 2 11.5664 13.8092 12.6652
208 2 11.6535 12.3529 12.7133
209 2 1.67882 13.0292 7.90838
210 2 0.452026 12.7948 8.76573
211 2 13.3919 15.0982 0.288209
212 2 13.3363 13.8806 14.7163
213 2 14.464 -0.200894 4.37726
214 2 0.375434 14.6711 3.60551
215 2 8.9899 13.516 11.3586
216 2 9.2753 12.2324 12.167
217 2 12.9387 6.78037 7.41661
218 2 12.7332 5.50681 6.76135
219 2 8.72154 10.911 8.15893
220 2 9.75699 9.71675 7.23621
221 2 10.3027 10.3858 12.0568
222 2 9.96197 10.6173 13.7022
223 2 9.72754 12.2682 5.36066
224 2 8.46483 11.6852 4.81486
225 2 4.67213 1.0605 13.9765
226 2 3.36922 1.76389 13.5239
227 2 7.25757 12.9749 13.1141
228 2 5.66129 12.8845 13.0262
229 2 3.22407 5.32362 9.21111
230 2 4.63302 5.7011 10.0706
231 2 10.8698 0.025373 14.0998
232 2 11.841 0.589976 13.1053
233 2 8.04678 15.1593 3.44432
234 2 8.1582 13.6551 4.10684
235 2 5.11294 1.40136 2.92299
236 2 5.43983 2.69226 3.96476
237 2 12.5983 10.8135 8.98099
238 2 11.4414 10.7062 8.24387
239 2 8.60827 9.76419 0.480045
240 2 8.95229 11.4033 0.227787
241 2 1.4535 1.52332 7.29109
242 2 1.7281 2.69859 8.42808
243 2 8.89187 4.9009 12.0111
244 2 7.87058 6.09448 12.1562
245 2 1.70351 8.91933 9.3078
246 2 1.05573 10.1881 8.68387
247 2 10.8822 11.2146 2.84233
248 2 10.6078 9.56481 2.86696
249 2 10.9928 5.19113 15.0754
250 2 11.1499 3.84192 14.0097
251 2 10.626 6.32442 9.79193
252 2 9.70507 6.49095 10.9437
253 2 5.80704 10.026 10.5495
254 2 4.99826 10.758 9.35748
255 2 8.06365 7.25477 0.742612
256 2 7.26774 7.93898 2.01325
257 2 13.9011 7.15196 9.60319
258 2 14.7511 8.28093 8.90269
259 2 5.84496 14.6493 3.87701
260 2 4.47447 13.8115 3.33481
261 2 6.65456 1.53025 6.79424
262 2 5.16536 1.24018 7.01013
263 2 1.37594 1.00135 9.34721
264 2 1.01317 14.8729 10.2445
265 2 10.7203 13.0342 1.39436
266 2 12.2377 13.1782 1.85289
267 2 8.03787 4.84238 10.2354
268 2 8.77325 4.87145 8.60329
269 2 -0.096337 13.4487 5.30576
270 2 0.249351 12.3003 6.54934
271 2 5.9735 11.3856 7.56481
272 2 4.31975 12.1815 7.63777
273 2 0.0900017 6.93117 14.2646
274 2 1.49135 7.06282 13.6353
275 2 1.36992 5.15971 11.8126
276 2 0.0372044 4.04921 11.2225
277 2 0.43781 0.872863 11.8561
278 2 0.726163 0.271401 13.4244
279 2 13.4127 12.6695 5.86413
280 2 12.544 12.0686 6.90269
281 2 6.47772 1.44925 0.621887
282 2 5.89707 0.0621358 1.30714
283 2 5.00588 7.29144 7.22883
284 2 5.10113 8.8444 7.13592
285 2 4.48681 2.92125 14.8463
286 2 4.2862 3.90717 0.682027
287 2 13.8656 2.15931 0.761779
288 2 14.7353 2.38433 15.026
289 2 7.64036 1.07642 2.12333
290 2 8.29066 2.2009 3.20795
291 2 9.51399 3.24288 9.76769
292 2 10.3157 1.44617 10.129
293 2 1.29134 4.40966 9.74598
294 2 1.20206 4.74793 8.38106
295 2 12.0691 0.0786629 3.58879
296 2 12.4352 14.2046 4.62075
297 2 10.0826 5.71442 4.89226
298 2 9.40407 4.41099 4.09228
299 2 9.04747 6.79761 14.3708
300 2 7.54014 6.2882 14.2031
301 2 1.98283 2.94795 12.1233
302 2 2.31831 1.55493 11.3458
303 2 10.8197 14.5466 10.139
304 2 10.2071 -0.0974968 11.55
305 2 15.1545 12.1952 0.884774
306 2 -0.0181816 10.8797 1.7457
307 2 9.19774 2.71336 13.1622
308 2 10.3364 3.4941 12.0686
309 2 7.17278 3.88253 4.17839
310 2 7.65985 4.19723 2.5805
311 2 2.78448 12.4714 3.4437
312 2 4.25365 11.9885 2.71911
313 2 13.314 2.88041 7.52209
314 2 14.1672 3.96463 7.8175
315 2 0.821958 7.48122 0.807809
316 2 1.54332 7.0747 2.22036
317 2 14.5108 10.2038 12.9865
318 2 12.833 10.478 13.6499
319 2 6.02225 2.33062 8.39338
320 2 7.10002 3.12286 9.09186
321 2 5.18529 4.42038 5.01692
322 2 5.49463 3.2221 5.82063
323 2 13.2953 2.55219 13.5157
324 2 14.0702 1.50768 12.7805
325 2 8.09233 7.242 5.14357
326 2 9.38669 8.06958 5.71539
327 2 3.40605 7.42512 9.95062
328 2 3.96753 8.85032 10.2808
329 2 4.65057 11.6223 11.2921
330 2 3.97727 11.7729 12.8725
331 2 0.0828931 11.8021 12.6403
332 2 0.272731 13.283 13.1449
333 2 6.26737 8.35839 5.68655
334 2 6.31637 8.14396 3.91853
335 2 9.70589 9.80929 9.79309
336 2 10.0578 8.47325 10.6766
337 2 8.62833 14.8096 9.36298
338 2 7.26736 14.8655 9.55666
339 2 -0.00603236 14.3176 -0.158342
340 2 1.68218 14.0417 15.1766
341 2 6.38438 4.07114 0.349495
342 2 7.70536 4.75352 0.0924339
343 2 13.5198 5.59194 10.7603
344 2 12.4973 6.86573 10.7882
345 2 6.74338 9.84383 12.7716
346 2 7.44229 9.78061 14.2465
347 2 5.82986 6.55336 12.9292
348 2 6.58589 7.76507 13.6145
349 2 4.03052 10.227 6.27171
350 2 3.20702 8.86993 6.0003
351 2 0.982195 0.594972 5.06689
352 2 1.59311 2.04112 5.27457
353 2 8.60517 13.6183 1.96562
354 2 9.64519 14.1495 0.551181
355 2 3.24906 0.769324 5.85918
356 2 4.33461 15.14 5.22113
357 2 11.1377 8.11953 1.52362
358 2 9.51499 8.11731 2.02277
359 2 2.88179 14.795 10.3531
360 2 3.70879 13.5155 11.0598
361 2 5.9468 12.5983 1.85366
362 2 6.4265 11.3113 2.84111
363 2 2.32486 10.7165 13.9911
364 2 3.77106 10.5887 14.8562
365 2 11.9978 3.53516 0.756575
366 2 12.6328 3.55417 2.30779
367 2 12.3616 12.9092 9.51797
368 2 12.3787 13.246 11.0335
369 2 13.9097 6.70323 12.7592
370 2 13.2845 6.73741 14.2305
371 2 11.5627 1.75951 2.16625
372 2 10.2381 1.29972 2.62508
373 2 0.885933 1.64664 0.656925
374 2 2.3651 1.14111 0.229595
375 2 8.06544 -0.146221 7.46945
376 2 8.86306 1.12707 6.72743
377 2 12.0496 11.2824 0.470267
378 2 13.6113 10.8282 0.306155
379 2 13.9294 3.64317 9.7898
380 2 13.6172 3.03696 11.2039
381 2 12.3873 3.37343 4.65257
382 2 11.7461 4.56594 4.36679
383 2 5.12346 10.5473 0.928225
384 2 5.50266 9.52389 15.0549
ITEM: TIMESTEP
400
ITEM: NUMBER OF ATOMS
384
ITEM: BOX BOUNDS pp pp pp
-1.3021218416963443e-01 1.5130212184169675e+01
-1.3021218416963443e-01 1.5130212184169675e+01
-1.3021218416963443e-01 1.5130212184169675e+01
ITEM: ATOMS id type x y z
1 1 4.52842 5.40756 12.6228
2 1 14.609 3.87195 14.0915
3 1 7.2462 10.8133 3.43744
4 1 1.77434 3.57096 4.4136
5 1 13.5989 9.63912 9.8768
6 1 9.42194 -0.0391407 15.0599
7 1 13.3196 9.73435 6.39258
8 1 3.46984 13.0173 7.93811
9 1 3.41137 6.05876 2.53232
10 1 5.5905 7.45226 2.09509
11 1 13.8188 6.71167 2.00453
12 1 0.660425 10.0509 13.9703
13 1 -0.0792414 5.26644 4.86378
14 1 9.65962 6.42751 8.08159
15 1 12.2604 6.7553 4.48117
16 1 10.2333 2.63101 6.73994
17 1 4.6607 3.83492 10.6159
18 1 6.85165 10.5002 11.1694
19 1 7.96469 2.04021 14.4679
20 1 5.78112 13.565 0.492723
21 1 -0.121199 13.3743 10.0074
22 1 12.2938 1.89684 5.69755
23 1 10.7125 6.41712 13.512
24 1 1.98697 7.97364 6.42764
25 1 10.6761 9.09716 5.71903
26 1 15.0307 7.88919 4.77999
27 1 1.63715 11.2126 4.45637
28 1 5.97694 0.535628 10.4524
29 1 12.2651 7.87671 0.00756471
30 1 2.05133 6.43764 12.0686
31 1 3.32833 5.68533 5.27396
32 1 7.51841 11.9737 7.76664
33 1 3.18157 3.40429 1.89849
34 1 3.28833 12.9301 0.0162201
35 1 -0.0142202 4.94299 7.45042
36 1 10.5317 14.7012 7.33596
37 1 1.01639 14.2395 1.81025
38 1 5.88462 0.903183 13.134
39 1 0.434011 9.74104 2.85928
40 1 12.2798 12.947 12.3922
41 1 1.14054 11.9781 8.16445
42 1 13.4816 13.9141 15.1009
43 1 15.1104 14.831 4.13452
44 1 8.378 12.7715 11.8825
45 1 12.056 5.95375 7.15744
46 1 9.6944 10.3114 7.93345
47 1 10.0879 10.9595 12.8497
48 1 8.55998 12.3228 5.36914
49 1 3.71465 1.73045 13.9541
50 1 6.09741 13.4395 13.2385
51 1 4.13486 6.12505 8.71465
52 1 11.1553 0.137564 12.845
53 1 7.37381 14.0463 3.58407
54 1 4.57002 2.16606 3.75392
55 1 12.1764 11.2506 8.5216
56 1 8.85072 10.1675 -0.0169997
57 1 2.05581 1.43215 8.26022
58 1 8.54375 5.24831 11.6223
59 1 0.678527 9.38358 8.77287
60 1 10.1221 10.6133 3.59581
61 1 11.5946 3.86814 14.4015
62 1 10.1558 7.01808 10.5253
63 1 4.67642 10.1437 9.73162
64 1 8.17676 8.03842 1.50235
65 1 13.9811 7.29144 8.1033
66 1 4.88138 14.7063 3.7868
67 1 5.73242 1.69474 6.45699
68 1 1.45529 0.148312 10.2845
69 1 11.244 12.6086 1.9109
70 1 8.79054 3.93779 9.31889
71 1 15.068 12.5785 5.60457
72 1 4.99015 11.0758 7.28907
73 1 0.75602 7.60236 14.1574
74 1 0.550509 4.21071 11.5494
75 1 15.0627 0.692947 12.6298
76 1 12.3756 12.7357 6.00199
77 1 6.33942 1.02476 1.13776
78 1 5.55926 8.05404 7.51407
79 1 4.75896 3.96794 15.013
80 1 14.5345 1.73073 0.561395
81 1 8.18697 1.22482 3.00808
82 1 10.3295 2.04546 10.5479
83 1 1.9823 4.21177 8.91502
84 1 12.373 14.8686 4.35833
85 1 9.74898 4.51958 4.92134
86 1 8.31524 6.1068 14.8062
87 1 2.63095 2.19393 11.5828
88 1 10.1773 14.5677 10.6493
89 1 14.7679 11.312 1.01908
90 1 9.60453 3.17179 12.708
91 1 7.62976 3.77283 3.53387
92 1 3.13879 12.6979 2.75004
93 1 13.1272 3.69104 7.90969
94 1 1.255 7.67341 1.66526
95 1 13.2553 9.81083 12.5969
96 1 6.46253 2.89495 8.92439
97 1 6.09564 4.42963 5.54371
98 1 12.7985 2.18194 12.4728
99 1 8.74658 7.24646 5.7738
100 1 2.83029 8.10835 9.95337
101 1 4.30673 12.1303 11.7836
102 1 0.964553 12.2194 12.2053
103 1 6.49773 8.42218 4.64163
104 1 9.26459 9.4875 10.626
105 1 7.57023 14.4673 8.72336
106 1 1.00036 13.9977 14.008
107 1 7.09395 3.98562 1.01576
108 1 12.5491 6.55085 11.0211
109 1 6.99913 9.47256 13.6264
110 1 6.76999 6.94546 12.7582
111 1 3.8267 9.69686 5.07749
112 1 1.43964 1.08943 5.70858
113 1 8.78996 12.9561 1.21983
114 1 3.64622 15.0026 6.2639
115 1 10.6834 8.18392 2.62846
116 1 3.81248 14.1924 10.1455
117 1 5.16632 11.3397 1.7688
118 1 3.23801 10.828 13.9969
119 1 12.195 2.90387 1.69654
120 1 12.3822 13.4696 9.77266
121 1 13.7658 6.62219 13.3699
122 1 10.7952 0.735649 2.41509
123 1 1.83267 1.51214 0.888455
124 1 8.21101 0.715883 6.02682
125 1 12.3158 10.4805 0.174627
126 1 13.2886 4.00767 10.5617
127 1 12.9213 4.00212 4.29514
128 1 4.71147 9.47063 0.158607
129 2 4.63469 4.75566 11.8271
130 2 4.54023 4.84816 13.6261
131 2 14.1049 4.77392 14.2075
132 2 -0.0108276 4.06839 13.291
133 2 6.94393 9.97597 3.72967
134 2 8.31724 10.7408 3.21077
135 2 1.10438 4.36025 4.29106
136 2 2.28013 3.45657 3.57285
137 2 14.491 9.40534 9.77282
138 2 13.2784 9.37643 10.786
139 2 9.71372 0.342663 0.562723
140 2 8.75909 0.632366 14.7169
141 2 13.2122 9.9349 7.30916
142 2 13.339 10.5667 5.87207
143 2 3.60245 13.5098 8.85406
144 2 3.41209 13.6638 7.23226
145 2 3.451 5.05404 2.51354
146 2 3.33546 6.3421 3.55099
147 2 5.11604 8.21272 1.58207
148 2 4.83912 6.86418 2.26863
149 2 13.4666 6.67444 2.83387
150 2 14.8514 6.835 1.96475
151 2 0.84893 8.93526 14.1726
152 2 0.259055 10.3889 14.7398
153 2 14.2659 4.66619 4.51623
154 2 15.0705 6.13431 4.68299
155 2 10.342 6.15997 7.62031
156 2 9.1971 6.66993 7.48939
157 2 12.1832 6.63655 5.37792
158 2 11.5452 7.26978 4.22424
159 2 9.81206 3.02828 7.49875
160 2 10.2234 3.3773 6.1062
161 2 3.80973 3.21326 10.8945
162 2 5.42028 3.56908 10.0025
163 2 7.63994 9.87439 10.7553
164 2 7.24007 11.4469 10.9945
165 2 7.75887 2.55495 -0.115043
166 2 7.11864 1.52778 14.1991
167 2 6.16483 13.3395 14.8221
168 2 4.78573 13.545 0.276504
169 2 14.2111 13.3077 9.75517
170 2 0.190553 13.1005 10.9715
171 2 11.528 2.01225 6.277
172 2 12.4021 0.936087 5.26209
173 2 11.2713 6.23923 12.6312
174 2 11.2872 6.99849 14.15
175 2 1.11568 8.25398 5.88537
176 2 1.68832 8.48682 7.29721
177 2 11.8023 9.37893 5.98505
178 2 10.5422 9.67238 4.83291
179 2 14.232 8.37354 5.04474
180 2 -0.00498417 8.5947 4.11581
181 2 1.17446 11.9054 5.19968
182 2 2.21971 10.5112 4.89974
183 2 6.08624 1.3376 9.79308
184 2 5.40711 15.0187 10.0923
185 2 12.27 8.94033 0.0789129
186 2 12.7084 7.53222 0.803741
187 2 2.28326 7.17188 11.478
188 2 2.82254 5.82659 12.3029
189 2 3.0632 6.33857 5.78339
190 2 2.72165 5.04194 5.22437
191 2 7.41158 12.7646 8.21887
192 2 7.92691 12.175 6.96895
193 2 2.49525 2.71391 1.69738
194 2 3.78032 2.72868 2.09877
195 2 3.2473 12.0559 14.8569
196 2 3.23479 12.7069 0.893854
197 2 -0.00629551 4.9865 6.36816
198 2 14.9637 5.75468 7.86558
199 2 10.9206 14.9466 8.00631
200 2 11.3018 14.1947 6.78594
201 2 1.6645 13.7984 2.31336
202 2 1.35932 15.0748 1.74049
203 2 6.17668 -0.0803899 13.3026
204 2 5.92232 0.935593 12.1741
205 2 1.01219 9.20343 2.24732
206 2 1.07963 10.2822 3.26444
207 2 11.8726 13.7115 12.8618
208 2 11.717 12.2507 12.7612
209 2 2.07603 12.294 8.18301
210 2 0.583008 12.5594 8.87223
211 2 13.4832 14.8982 14.6044
212 2 13.3815 13.4373 14.2824
213 2 14.1951 14.9187 3.96946
214 2 0.250868 14.6701 3.20386
215 2 8.88312 13.3272 11.357
216 2 9.06677 12.1788 12.2731
217 2 12.6377 6.61209 7.76305