ITEM: TIMESTEP
0
ITEM: NUMBER OF ATOMS
384
ITEM: BOX BOUNDS pp pp pp
-3.1180958401302572e-01 1.5311809584013066e+01
-3.1180958401302572e-01 1.5311809584013066e+01
-3.1180958401302572e-01 1.5311809584013066e+01
ITEM: ATOMS id type x y z
1 1 4.57679 5.50123 13.6944
2 1 14.8875 3.66367 14.1079
3 1 8.20115 10.8513 3.91518
4 1 1.55859 4.11103 4.68534
5 1 14.0046 11.0534 10.4291
6 1 10.1562 -0.0244194 -0.0179537
7 1 13.1461 9.78511 5.92123
8 1 3.48566 13.6848 7.87681
9 1 3.32305 6.30373 3.20589
10 1 5.30735 8.37688 2.36991
11 1 13.7801 6.32188 1.70807
12 1 0.692367 10.1945 14.1186
13 1 15.0627 5.43363 4.6639
14 1 9.98456 5.97612 7.92121
15 1 12.4056 7.19481 3.96576
16 1 9.83562 2.64919 6.79506
17 1 4.60459 4.17249 11.4106
18 1 7.55062 10.3381 11.1669
19 1 8.27543 1.89543 14.4455
20 1 5.83253 14.0038 0.549654
21 1 -0.277952 13.5963 10.2649
22 1 12.6457 2.09652 6.28487
23 1 10.7129 7.40871 14.2399
24 1 2.2119 7.88472 6.40809
25 1 10.4542 9.69036 5.97773
26 1 -0.282536 8.22967 4.81222
27 1 1.6652 11.2607 4.20606
28 1 6.17365 -0.094545 10.725
29 1 12.1932 8.4542 0.381712
30 1 2.29814 6.67565 12.652
31 1 3.74006 5.65533 5.77839
32 1 7.64075 12.3667 7.75101
33 1 2.57949 3.81144 2.08856
34 1 3.31976 13.3432 0.0677147
35 1 -0.0967938 5.37115 7.46928
36 1 11.1426 14.5448 7.59235
37 1 1.26174 14.8074 2.57217
38 1 6.41618 0.335516 13.3898
39 1 0.207637 9.92258 2.18818
40 1 12.6731 13.1901 12.8323
41 1 1.29363 11.9761 7.9846
42 1 13.2286 14.8362 0.439531
43 1 -0.123887 15.1905 5.01064
44 1 8.80795 12.7708 12.0788
45 1 12.4172 6.75949 6.79319
46 1 9.49869 10.6014 8.40823
47 1 10.544 10.9934 13.3575
48 1 8.99001 12.8372 5.44675
49 1 4.04829 1.51716 14.6149
50 1 6.69928 13.1999 13.7041
51 1 4.43379 6.10378 9.26553
52 1 11.4216 -0.0969869 13.0672
53 1 8.10878 14.4288 3.40524
54 1 4.3962 2.37166 3.28729
55 1 12.1316 11.4523 8.45349
56 1 8.7458 10.8517 -0.213292
57 1 1.53862 1.7361 8.48855
58 1 8.69585 5.89847 11.616
59 1 1.22107 9.19196 8.49846
60 1 10.635 10.5731 3.14594
61 1 11.4957 4.51089 15.2148
62 1 10.9209 6.7156 10.446
63 1 4.94638 10.4223 10.3546
64 1 7.94749 8.55464 1.09697
65 1 14.5919 7.80968 8.4877
66 1 5.26248 14.7619 3.62401
67 1 5.62202 2.26942 6.97039
68 1 1.29568 -0.0251437 10.348
69 1 11.6689 12.7598 1.5126
70 1 8.10674 4.34492 9.29769
71 1 15.2574 12.5827 5.71394
72 1 5.13758 11.4238 7.95676
73 1 0.807368 7.59384 14.5622
74 1 1.07308 4.35508 11.6836
75 1 -0.103901 0.899318 12.6958
76 1 12.4336 12.7126 5.99741
77 1 6.5124 0.898083 1.44852
78 1 5.22926 7.74021 7.34722
79 1 4.69818 3.85809 0.25821
80 1 14.6318 1.53081 0.260033
81 1 8.7843 1.26425 2.88569
82 1 10.1715 2.86217 10.2074
83 1 1.97586 4.56417 8.94346
84 1 12.6683 15.2799 4.82665
85 1 10.1623 4.44247 4.67024
86 1 8.26116 6.29332 15.2182
87 1 2.75694 2.33071 12.3211
88 1 10.1168 15.0402 10.6766
89 1 0.0214213 11.8389 0.424274
90 1 9.92368 3.73613 12.9889
91 1 7.93039 3.8304 3.09944
92 1 3.45334 12.7245 2.72154
93 1 13.7442 3.34545 8.32257
94 1 1.06378 7.50528 1.70711
95 1 13.5608 9.51663 12.896
96 1 6.16563 2.34739 9.6158
97 1 6.00658 4.12469 4.96415
98 1 13.0409 2.11594 12.6389
99 1 9.44842 7.22402 5.61094
100 1 3.08802 8.31472 10.412
101 1 4.27645 12.564 12.0172
102 1 0.247817 12.7339 12.6695
103 1 6.92237 8.32243 4.80264
104 1 10.2096 9.4039 11.0142
105 1 8.10819 14.6608 9.11245
106 1 0.724807 14.5893 14.8093
107 1 7.38606 3.87893 0.612739
108 1 13.59 6.17467 11.3541
109 1 6.57455 9.82429 14.0409
110 1 6.72525 7.05567 13.1783
111 1 3.66994 10.3273 5.96103
112 1 1.66543 1.60839 5.77048
113 1 9.05834 13.0173 1.11863
114 1 4.11235 0.213829 6.02437
115 1 10.3679 8.11545 2.36753
116 1 3.8208 14.5044 10.4834
117 1 6.27696 11.8524 2.07137
118 1 3.1417 11.1769 14.1451
119 1 12.971 3.21476 1.56998
120 1 12.4061 13.5738 10.1924
121 1 14.0948 6.56232 13.8874
122 1 11.4172 0.689063 2.37021
123 1 1.65778 1.52802 1.12949
124 1 7.74882 0.714644 6.86752
125 1 13.0368 10.8806 0.0461404
126 1 14.1536 3.59273 10.8941
127 1 12.9937 3.74289 4.44237
128 1 4.93288 10.2326 0.481908
129 2 4.52916 4.87676 12.9369
130 2 4.69703 5.06241 14.547
131 2 14.6886 4.58995 14.3163
132 2 0.0945933 3.63697 13.6264
133 2 7.74221 10.0755 4.24889
134 2 8.99342 10.7228 3.34745
135 2 0.788771 4.72927 4.53377
136 2 1.81069 3.95163 3.77685
137 2 14.4008 11.9252 10.4575
138 2 13.9069 10.7269 11.3647
139 2 10.6725 0.201823 0.765773
140 2 9.47367 0.652849 -0.0632908
141 2 13.5922 9.97565 6.76473
142 2 13.2152 10.5455 5.32572
143 2 3.67781 14.0964 8.7488
144 2 3.53939 14.3835 7.27865
145 2 3.09567 5.45978 2.78243
146 2 3.60518 6.19337 4.09913
147 2 5.08995 9.05489 1.76222
148 2 4.54185 7.79795 2.5309
149 2 13.4381 6.67871 2.59019
150 2 14.7355 6.25337 1.79471
151 2 0.77524 9.18308 14.2443
152 2 0.388115 10.6288 14.9234
153 2 14.1894 4.91997 4.56536
154 2 14.9228 6.4107 4.60147
155 2 10.8762 5.93786 7.61697
156 2 9.58879 6.53361 7.20672
157 2 12.1014 7.06547 4.8105
158 2 11.5829 7.27566 3.48345
159 2 9.70669 3.06202 7.62541
160 2 9.96186 3.35305 6.0781
161 2 3.89127 3.51534 11.556
162 2 5.31618 3.63484 11.0911
163 2 8.36256 9.80951 10.99
164 2 7.91946 11.2623 11.3115
165 2 7.80256 2.56448 14.9346
166 2 7.58248 1.21916 14.1315
167 2 6.10462 13.5421 -0.242407
168 2 4.85977 13.825 0.528199
169 2 14.4101 13.8153 10.1623
170 2 -0.0704958 13.4422 11.1966
171 2 11.7088 2.1063 6.54679
172 2 12.6961 1.18401 5.89058
173 2 10.9921 7.5299 13.3514
174 2 11.2636 8.01166 14.7268
175 2 1.57728 7.89927 5.7134
176 2 1.87051 8.36741 7.16573
177 2 11.4302 9.71213 6.20698
178 2 10.3486 10.1292 5.1128
179 2 14.4149 8.445 5.04536
180 2 0.00164071 8.8165 4.03796
181 2 1.02838 11.8189 4.67407
182 2 2.36173 10.8675 4.79517
183 2 6.32838 0.734699 10.265
184 2 5.21972 -0.301306 10.6492
185 2 12.568 9.37229 0.310345
186 2 12.8634 7.95827 0.824663
187 2 2.56428 7.41349 12.0109
188 2 3.14156 6.4193 13.0935
189 2 3.16723 6.41343 5.9805
190 2 3.10221 4.98312 5.63197
191 2 7.73547 13.1577 8.33842
192 2 8.06104 12.6116 6.87934
193 2 1.75422 3.38105 1.7562
194 2 3.25148 3.1727 2.47226
195 2 3.15037 12.6412 14.9757
196 2 3.16776 12.9566 0.983888
197 2 0.0720948 5.37286 6.52711
198 2 -0.245356 6.34024 7.61737
199 2 11.6512 14.8569 8.35832
200 2 11.802 13.9131 7.23812
201 2 2.07792 14.3411 2.56175
202 2 1.50629 0.044002 2.08403
203 2 6.3968 14.9261 13.4491
204 2 6.20534 0.425411 12.4267
205 2 0.660795 9.1318 1.85703
206 2 0.694078 10.391 2.87312
207 2 12.3708 14.0972 13.0916
208 2 12.1841 12.5232 13.366
209 2 2.09163 12.5603 7.87369
210 2 0.901668 12.2269 8.80367
211 2 13.6981 0.109016 0.335681
212 2 13.4443 14.3386 15.279
213 2 14.5376 15.2076 4.93591
214 2 0.228484 14.9795 4.13145
215 2 9.24837 13.4527 11.622
216 2 9.52013 12.2417 12.5392
217 2 12.875 7.30125 7.44426
218 2 13.1287 6.09272 6.70831
219 2 8.70364 11.2231 8.31889
220 2 9.67729 10.2938 7.51515
221 2 10.4955 10.2933 12.7118
222 2 10.0325 10.7711 14.1408
223 2 9.87115 13.0955 5.5737
224 2 8.95145 12.0108 4.93614
225 2 4.74251 0.928236 14.2575
226 2 3.48888 1.81195 13.8977
227 2 7.56401 13.1017 13.1985
228 2 6.02622 12.6782 13.2435
229 2 3.65548 5.64787 8.88705
230 2 4.53028 5.65688 10.1121
231 2 10.7483 -0.0654962 13.7661
232 2 11.7812 0.808853 13.0779
233 2 8.36482 -0.291862 3.46612
234 2 8.34757 14.0066 4.25098
235 2 5.1094 1.81781 2.95108
236 2 4.6411 2.96006 4.03817
237 2 12.5339 11.0417 9.22128
238 2 11.1841 11.2095 8.49369
239 2 8.60742 10.312 0.576946
240 2 8.69537 11.7883 0.0583599
241 2 1.42282 1.68337 7.50469
242 2 1.60998 2.65673 8.73322
243 2 8.87953 5.11923 12.1645
244 2 8.03029 6.40716 12.1505
245 2 1.95332 8.95172 9.16853
246 2 1.28006 10.1574 8.3047
247 2 11.2632 11.2403 2.79611
248 2 10.7957 9.70539 2.72449
249 2 11.5653 5.40273 -0.288322
250 2 11.1896 4.32648 14.2564
251 2 10.4204 6.65681 9.62663
252 2 10.2607 6.46258 11.0571
253 2 5.87632 10.1769 10.5904
254 2 4.94364 10.8143 9.46912
255 2 7.91802 7.6928 0.604333
256 2 7.17835 8.74025 1.63464
257 2 14.2008 7.92642 9.35992
258 2 -0.267797 8.44072 8.55252
259 2 6.16366 14.3915 3.8125
260 2 4.75946 14.0077 3.26281
261 2 6.35085 1.60272 6.90857
262 2 4.84301 1.75402 6.76165
263 2 1.34137 0.662419 9.62968
264 2 0.817817 14.7755 10.0578
265 2 10.8342 13.0339 1.10914
266 2 12.2496 13.5788 1.43103
267 2 7.99168 4.93257 10.0429
268 2 8.59208 4.87508 8.55834
269 2 -0.0863874 13.5026 5.64494
270 2 0.00602987 12.1735 6.56287
271 2 6.0476 11.6847 7.84187
272 2 4.65027 12.2574 7.8746
273 2 -0.10786 7.21382 14.4417
274 2 1.40859 7.20909 13.8607
275 2 1.10879 5.19843 12.1297
276 2 0.142322 4.18446 11.4107
277 2 0.192301 0.569522 11.8253
278 2 0.262058 0.216297 13.3227
279 2 13.325 12.966 5.76917
280 2 12.474 12.1815 6.79075
281 2 6.96454 1.33987 0.72514
282 2 6.22808 -0.0168944 1.14781
283 2 5.28424 6.95392 7.95734
284 2 5.69738 8.44349 7.79401
285 2 4.59695 2.96295 -0.156096
286 2 4.05776 3.8329 1.0606
287 2 14.2623 2.20361 0.861912
288 2 14.7961 2.02476 15.1013
289 2 7.90736 0.984376 2.41964
290 2 8.42535 2.08554 3.23522
291 2 9.33834 3.30929 9.83257
292 2 10.1754 1.88055 10.1119
293 2 1.75381 4.52695 9.90946
294 2 1.11552 4.78978 8.54253
295 2 12.2645 0.0873025 4.07993
296 2 12.0334 14.6435 5.15054
297 2 9.97133 5.30379 5.02216
298 2 9.51596 4.30903 3.95105
299 2 9.11176 6.41377 14.7882
300 2 7.57568 6.54 14.599
301 2 2.07189 2.92609 11.9449
302 2 2.69894 1.52435 11.845
303 2 10.8501 14.3815 10.4642
304 2 10.5118 -0.206863 11.478
305 2 0.274248 12.7719 0.61942
306 2 0.108425 11.2293 1.22179
307 2 9.70727 2.84376 13.3266
308 2 10.3129 3.49932 12.1129
309 2 7.16744 3.93944 3.6373
310 2 7.68964 3.77425 2.12389
311 2 2.7812 12.2345 3.34142
312 2 4.17512 12.108 2.65722
313 2 13.4252 2.63657 7.76521
314 2 14.4885 3.85196 7.85505
315 2 1.16553 7.50623 0.684607
316 2 1.80702 6.9489 2.01705
317 2 14.4305 9.58843 13.243
318 2 13.0187 10.0336 13.4694
319 2 5.70123 2.57075 8.68482
320 2 6.80813 3.05178 9.52933
321 2 5.35787 4.80808 5.12533
322 2 5.96938 3.53575 5.71789
323 2 13.0854 2.74416 13.3668
324 2 13.871 1.59988 12.7008
325 2 8.54415 7.16809 5.28465
326 2 9.76316 8.11779 5.62097
327 2 3.5805 7.58031 10.0651
328 2 3.76188 9.05652 10.3377
329 2 4.55808 11.8882 11.3243
330 2 3.56374 12.075 12.5347
331 2 0.334551 11.7965 12.6005
332 2 0.24849 12.8839 13.5924
333 2 6.35726 8.22802 5.65351
334 2 6.38531 8.12785 4.02112
335 2 10.214 9.5859 10.0692
336 2 10.6644 8.57403 11.1276
337 2 8.95214 14.8857 9.64428
338 2 7.3584 14.7538 9.70982
339 2 0.591563 15.0693 0.0182509
340 2 1.70203 14.3696 14.7724
341 2 6.4741 3.89198 0.306924
342 2 7.8908 4.74294 0.474307
343 2 13.7745 5.25403 11.174
344 2 12.6407 6.3597 11.1641
345 2 6.61181 10.3071 13.1711
346 2 7.38294 10.2018 14.4287
347 2 5.92965 6.53312 13.3142
348 2 6.65131 8.00804 13.4902
349 2 4.1508 10.9057 6.58172
350 2 3.72612 9.43762 6.27968
351 2 0.960879 1.05271 5.33877
352 2 1.48012 2.49213 5.40543
353 2 8.71011 13.4532 1.93204
354 2 8.99593 13.78 0.520382
355 2 3.28533 0.709593 5.89467
356 2 4.52263 -0.105961 5.1872
357 2 10.8957 8.12501 1.5533
358 2 9.392 8.09909 2.00114
359 2 2.85608 14.8006 10.6062
360 2 3.90293 13.7417 11.0449
361 2 6.48734 12.6937 1.54518
362 2 7.04029 11.6822 2.67807
363 2 2.24681 10.7375 14.3261
364 2 3.668 10.6767 14.8241
365 2 12.3482 3.69431 0.972113
366 2 13.2921 3.83378 2.19605
367 2 12.5073 12.8061 9.60602
368 2 12.5354 13.311 11.1419
369 2 13.9506 6.55755 12.8999
370 2 13.4462 7.1125 14.3857
371 2 11.8334 1.45816 2.05064
372 2 10.4376 0.894116 2.52875
373 2 0.844146 1.54638 0.605455
374 2 2.39804 1.38307 0.478242
375 2 7.77884 0.12269 7.66547
376 2 8.60235 1.23456 6.91956
377 2 12.4122 11.5105 0.551261
378 2 13.9301 11.2794 0.187093
379 2 13.8259 3.47873 9.96028
380 2 13.5184 3.1733 11.5056
381 2 12.9666 3.11167 5.2382
382 2 12.0906 4.05916 4.29522
383 2 5.48443 10.7696 1.07083
384 2 5.47524 10.05 -0.286949
ITEM: TIMESTEP
200
ITEM: NUMBER OF ATOMS
384
ITEM: BOX BOUNDS pp pp pp
-2.1868351273538700e-01 1.5218683512735430e+01
-2.1868351273538700e-01 1.5218683512735430e+01
-2.1868351273538700e-01 1.5218683512735430e+01
ITEM: ATOMS id type x y z
1 1 4.50787 5.53367 13.1228
2 1 14.5052 3.8833 13.8679
3 1 7.54774 10.6828 3.82177
4 1 1.72906 3.76323 4.58406
5 1 13.6488 10.1854 10.3088
6 1 9.97024 0.240095 -0.0691616
7 1 13.3491 9.62851 6.06578
8 1 3.36288 13.576 7.56167
9 1 3.15626 6.4951 2.82739
10 1 5.5107 7.90006 2.60807
11 1 13.743 6.56478 1.87088
12 1 0.565335 10.0293 13.8291
13 1 14.9534 5.40269 4.89821
14 1 9.87019 5.92711 7.87778
15 1 12.2101 6.9879 4.05453
16 1 9.90555 2.76122 6.77824
17 1 4.71773 3.93381 11.2315
18 1 7.29875 10.3743 11.2569
19 1 8.36842 1.92237 14.387
20 1 5.81975 13.8961 0.575027
21 1 -0.0812501 13.3123 10.0206
22 1 12.5813 1.87202 6.2326
23 1 10.6805 7.10472 14.1723
24 1 1.96576 7.84108 6.35306
25 1 10.4299 9.23717 5.84146
26 1 15.0905 8.17422 4.72528
27 1 1.81025 11.4439 4.40842
28 1 5.92373 0.333295 10.5575
29 1 12.271 8.05594 0.28646
30 1 2.16555 6.51403 12.3073
31 1 3.56145 5.76165 5.32454
32 1 7.66982 11.9474 7.7579
33 1 3.20191 3.55646 2.19186
34 1 3.04863 13.2325 0.154571
35 1 -0.0265816 5.34449 7.5987
36 1 10.7193 14.5141 7.31412
37 1 1.18679 14.5359 2.26936
38 1 6.11177 0.423678 13.3032
39 1 0.48261 9.85192 2.82874
40 1 12.2299 13.1028 12.5877
41 1 0.949625 12.2687 7.99445
42 1 13.5124 14.2779 0.203922
43 1 -0.0998229 14.9794 4.50376
44 1 8.49024 12.7431 11.7894
45 1 12.4957 6.37317 6.82138
46 1 9.67771 10.3298 8.20927
47 1 10.4023 11.0487 12.8002
48 1 8.79556 12.4177 5.43332
49 1 3.94988 1.71621 14.2271
50 1 6.46156 13.2279 13.4479
51 1 4.10234 5.88307 9.30795
52 1 11.1774 -0.00836766 13.0693
53 1 7.56445 14.2115 3.51934
54 1 4.72469 2.05634 3.56618
55 1 12.223 11.2471 8.30548
56 1 8.87573 10.4819 -0.138742
57 1 1.71515 1.70803 8.32823
58 1 8.44265 5.58616 11.546
59 1 1.2242 9.1038 8.55531
60 1 10.4648 10.385 3.35422
61 1 11.5883 4.40908 14.8345
62 1 10.5008 6.90212 10.4972
63 1 4.91313 10.2167 10.1362
64 1 7.95808 8.05827 1.37181
65 1 14.3397 7.52941 8.63587
66 1 4.88247 14.7185 3.69575
67 1 5.72711 1.9485 6.82562
68 1 1.35609 0.437743 10.4027
69 1 11.4952 12.4953 1.65146
70 1 8.31161 4.26649 9.31539
71 1 15.1923 12.5872 5.68258
72 1 4.91954 11.3227 7.59893
73 1 0.923957 7.47369 14.3486
74 1 1.04379 4.2336 11.8146
75 1 -0.0716823 0.578383 12.7781
76 1 12.4092 12.5062 5.9572
77 1 6.21346 1.08975 1.39884
78 1 5.61569 8.00496 7.02278
79 1 4.62642 4.01895 -0.210501
80 1 14.5679 1.70775 0.275586
81 1 8.53318 1.28655 2.68809
82 1 10.1394 2.58981 10.2535
83 1 1.84075 4.36335 8.89222
84 1 12.6822 15.0504 4.25386
85 1 10.2689 4.80616 4.94283
86 1 8.34222 6.28678 14.9326
87 1 2.72801 2.21972 12.0364
88 1 9.98414 14.7231 10.7779
89 1 -0.194232 11.2592 0.712932
90 1 9.69076 3.58532 12.7709
91 1 7.9127 3.89573 3.51038
92 1 3.37214 12.7076 2.70234
93 1 13.4714 3.55376 8.13855
94 1 0.783422 7.54429 1.71423
95 1 13.4088 10.0299 12.8362
96 1 6.18794 2.7532 9.30465
97 1 5.86844 3.88779 5.13859
98 1 12.9803 1.85399 12.7626
99 1 9.00314 7.01629 5.45409
100 1 3.11568 8.21254 10.2589
101 1 4.37434 12.3084 11.9867
102 1 0.551588 12.7263 12.4404
103 1 6.81148 8.47574 4.70003
104 1 9.73095 9.49159 10.7174
105 1 7.87635 14.5298 8.96116
106 1 0.753315 14.3891 14.5906
107 1 7.4572 3.97553 0.363749
108 1 13.4079 6.59587 10.8625
109 1 6.71275 9.62241 13.684
110 1 6.69054 6.93565 13.078
111 1 3.57526 9.80503 5.60019
112 1 1.46795 1.17063 5.67078
113 1 9.09285 13.2492 1.06592
114 1 3.92978 0.191199 6.12813
115 1 10.4575 8.01835 2.27762
116 1 3.70279 14.1911 10.341
117 1 5.69706 11.5777 2.18999
118 1 3.22575 11.0198 14.1515
119 1 12.3644 2.89036 1.58381
120 1 12.5133 13.6844 10.037
121 1 13.9405 6.51932 13.6295
122 1 11.1262 0.92154 2.48568
123 1 1.74706 1.38367 1.05429
124 1 8.03809 0.708585 6.67976
125 1 12.6858 10.661 -0.217264
126 1 13.9727 3.81703 10.7542
127 1 12.5538 4.18141 4.03541
128 1 4.92275 9.70974 0.43836
129 2 4.85959 4.85065 12.2024
130 2 4.48117 5.23225 14.1571
131 2 14.1715 4.81125 13.8236
132 2 -0.114468 3.86325 13.3893
133 2 7.05415 9.92782 4.25656
134 2 8.51401 10.3757 3.5726
135 2 0.987324 4.22011 4.32781
136 2 2.08897 3.69753 3.6459
137 2 14.1969 10.7394 10.1209
138 2 13.465 10.0639 11.319
139 2 10.6115 0.745924 0.640452
140 2 9.32879 0.973867 15.0983
141 2 13.4154 9.60643 7.05838
142 2 13.0515 10.5084 5.76485
143 2 3.47665 13.9657 8.32704
144 2 3.44685 14.2942 6.76454
145 2 3.12906 5.74457 2.19514
146 2 3.215 6.163 3.91005
147 2 5.44932 8.4158 1.83223
148 2 4.8123 7.1841 2.58231
149 2 13.1557 6.72687 2.61207
150 2 14.5549 7.06594 2.00074
151 2 0.986085 9.10783 13.8273
152 2 0.42871 10.383 14.7914
153 2 14.0648 5.00725 4.61585
154 2 14.8897 6.40438 4.68049
155 2 10.7195 6.06863 7.54511
156 2 9.23453 6.58651 7.43328
157 2 12.7436 6.97491 4.99428
158 2 11.5939 7.77589 3.61008
159 2 9.62439 3.10786 7.56876
160 2 9.90221 3.46931 6.36378
161 2 3.98877 3.17993 11.4113
162 2 5.31929 3.37732 10.7029
163 2 8.24551 10.0131 11.048
164 2 7.76363 11.3353 11.2508
165 2 8.08101 2.74529 14.763
166 2 7.46766 1.69148 13.8584
167 2 6.18801 13.5986 15.0431
168 2 4.93273 13.6531 0.355799
169 2 14.4474 13.6438 9.80789
170 2 0.251198 13.0387 11.0948
171 2 11.556 2.02035 6.30126
172 2 12.5479 1.10948 5.6878
173 2 10.7705 7.6026 13.2619
174 2 11.2114 7.59706 14.8581
175 2 1.16857 7.83398 5.63456
176 2 1.41509 8.20442 7.10659
177 2 11.4084 9.16358 5.93956
178 2 10.564 9.69174 5.05281
179 2 14.5502 8.69157 5.29777
180 2 0.114163 8.60424 4.00259
181 2 1.01455 11.8569 4.93013
182 2 2.57377 10.8688 4.98713
183 2 6.01801 1.07795 10.0034
184 2 5.06579 -0.102663 10.5438
185 2 12.5688 8.9411 0.0189691
186 2 12.9064 7.4234 0.928943
187 2 2.27061 7.19656 11.6662
188 2 3.15122 6.33313 12.476
189 2 3.04558 6.46524 5.69236
190 2 2.91404 5.01182 5.08526
191 2 7.72192 12.9635 8.44463
192 2 7.95158 12.2517 7.02988
193 2 2.66407 2.84871 1.70267
194 2 3.82354 3.13848 2.86366
195 2 3.04087 12.4203 15.02
196 2 2.85268 13.0415 1.14147
197 2 15.1314 5.30409 6.60897
198 2 15.0917 6.25327 7.79502
199 2 11.3282 -0.0692204 7.50574
200 2 11.0487 13.8813 6.87581
201 2 2.03825 14.1378 2.49596
202 2 1.19439 -0.0318838 1.79213
203 2 6.2274 14.8097 13.4294
204 2 5.87242 0.307029 12.3883
205 2 0.96262 9.27376 2.16567
206 2 1.11176 10.4458 3.47468
207 2 11.611 13.8477 12.6299
208 2 11.8321 12.3853 12.6904
209 2 1.80535 12.91 7.94075
210 2 0.392503 12.8179 8.77701
211 2 13.359 -0.196082 0.310547
212 2 13.3746 13.8728 14.6633
213 2 14.375 -0.117418 4.33373
214 2 0.320188 14.6188 3.57849
215 2 9.03001 13.4519 11.4285
216 2 9.35235 12.3613 12.2183
217 2 13.0446 6.72801 7.45437
218 2 12.7407 5.42425 6.72596
219 2 8.8352 10.9103 8.25486
220 2 9.80697 9.81711 7.27229
221 2 10.3432 10.4638 12.0606
222 2 9.89639 10.6478 13.7001
223 2 9.65432 12.2836 5.41978
224 2 8.49515 11.6415 4.80498
225 2 4.59918 1.03206 13.9427
226 2 3.3313 1.79308 13.4917
227 2 7.29899 12.8766 13.1069
228 2 5.71018 12.8206 12.9314
229 2 3.25024 5.28722 9.19261
230 2 4.73691 5.7462 10.0057
231 2 10.8142 0.158483 14.1471
232 2 11.8915 0.554115 13.0485
233 2 8.00762 15.0715 3.47987
234 2 8.17102 13.5729 4.19819
235 2 5.13761 1.54428 2.9518
236 2 5.31125 2.70285 3.984
237 2 12.5742 10.7656 8.96854
238 2 11.4659 10.7924 8.15477
239 2 8.53319 9.80527 0.53847
240 2 9.02391 11.3923 0.3061
241 2 1.53481 1.53543 7.27801
242 2 1.6958 2.7567 8.35883
243 2 8.83491 4.86943 11.9897
244 2 7.8928 6.10694 12.056
245 2 1.6317 8.87357 9.38771
246 2 1.05454 10.1148 8.64885
247 2 10.9446 11.2464 2.93614
248 2 10.6432 9.6327 2.92381
249 2 11.0618 5.13687 14.9548
250 2 11.1822 3.80152 14.0799
251 2 10.6824 6.35771 9.6636
252 2 9.65097 6.44337 10.959
253 2 5.87522 10.0499 10.4485
254 2 5.12419 10.6484 9.35495
255 2 8.07345 7.32807 0.748124
256 2 7.23095 7.90561 1.95914
257 2 13.871 7.18803 9.64067
258 2 14.7048 8.27922 8.97977
259 2 5.72785 14.6791 3.84568
260 2 4.34995 13.9251 3.36196
261 2 6.72164 1.43426 6.73693
262 2 5.05327 1.19181 6.95435
263 2 1.39772 0.984667 9.31327
264 2 1.06164 14.8479 10.2011
265 2 10.7556 12.9946 1.3289
266 2 12.2858 13.109 1.78172
267 2 7.99365 4.78679 10.2503
268 2 8.79915 4.94973 8.65044
269 2 -0.0652121 13.3963 5.29284
270 2 0.225654 12.3028 6.48705
271 2 5.94858 11.4847 7.58394
272 2 4.30776 12.1263 7.6274
273 2 0.145214 6.93172 14.2123
274 2 1.52407 7.18194 13.6555
275 2 1.27267 5.19459 11.7645
276 2 0.109843 4.14816 11.238
277 2 0.284316 0.849324 11.8909
278 2 0.643409 0.290148 13.3586
279 2 13.391 12.6369 5.93949
280 2 12.4963 12.0662 6.95441
281 2 6.45858 1.41197 0.634919
282 2 5.89802 -0.0233128 1.23207
283 2 5.04729 7.25311 7.17708
284 2 5.0449 8.72048 7.31968
285 2 4.43857 2.98277 14.7439
286 2 4.25664 3.75253 0.693642
287 2 13.8825 2.15511 0.723281
288 2 14.812 2.39035 15.0589
289 2 7.74975 1.01308 2.08416
290 2 8.22679 2.15606 3.07629
291 2 9.48275 3.1782 9.65325
292 2 10.313 1.48993 10.2463
293 2 1.35539 4.32813 9.69921
294 2 1.21716 4.7675 8.37022
295 2 12.0982 0.0224528 3.47741
296 2 12.4088 14.1937 4.63209
297 2 10.0899 5.59016 4.98782
298 2 9.5262 4.47334 4.19957
299 2 8.9701 6.8258 14.3407
300 2 7.54976 6.34715 14.2457
301 2 2.00179 2.88704 12.141
302 2 2.40643 1.58702 11.3314
303 2 10.9142 14.5999 10.2974
304 2 10.2139 -0.20811 11.5621
305 2 15.1382 12.1885 0.953931
306 2 -0.0479325 10.8686 1.63208
307 2 9.2098 2.69883 13.1413
308 2 10.2509 3.54582 12.0029
309 2 7.0925 3.83819 4.2095
310 2 7.53612 4.17429 2.56209
311 2 2.87494 12.4262 3.47972
312 2 4.25182 12.0806 2.66772
313 2 13.3063 2.79372 7.57373
314 2 14.1927 4.07919 7.87981
315 2 0.80482 7.41421 0.801529
316 2 1.52675 7.09413 2.15331
317 2 14.5033 10.1623 12.8887
318 2 12.8476 10.5569 13.5398
319 2 6.0207 2.34088 8.2991
320 2 7.12689 3.13051 9.19538
321 2 5.0644 4.5094 5.12749
322 2 5.5386 3.18266 5.76241
323 2 13.3152 2.50253 13.4917
324 2 13.9521 1.40055 12.8132
325 2 8.13578 7.21056 5.15253
326 2 9.31548 8.04263 5.65993
327 2 3.46314 7.27624 9.93677
328 2 3.98085 8.84038 10.3178
329 2 4.67884 11.5255 11.4726
330 2 4.061 11.8347 12.732
331 2 0.162986 11.6799 12.7138
332 2 0.195138 13.4125 13.1585
333 2 6.18101 8.45447 5.65735
334 2 6.23861 8.16706 4.04112
335 2 9.77741 9.80977 9.77624
336 2 9.98075 8.54913 10.6319
337 2 8.67417 14.7198 9.429
338 2 7.23948 14.8435 9.62051
339 2 0.0292477 14.3674 -0.131423
340 2 1.78939 14.1001 15.1118
341 2 6.40555 4.15732 0.288487
342 2 7.74834 4.81276 0.206876
343 2 13.6386 5.57235 10.8263
344 2 12.4061 6.83507 10.7294
345 2 6.66167 9.79267 12.6393
346 2 7.4527 9.87933 14.2562
347 2 5.85724 6.47507 12.9509
348 2 6.65473 7.89464 13.6454
349 2 3.928 10.1686 6.28748
350 2 3.2359 8.97319 5.98604
351 2 0.958427 0.518074 5.00843
352 2 1.48346 1.95695 5.36179
353 2 8.63387 13.5421 2.00474
354 2 9.49711 14.1031 0.540779
355 2 3.13342 0.765423 5.94066
356 2 4.32154 -0.210642 5.20281
357 2 11.1761 7.99693 1.5577
358 2 9.55552 8.12816 1.95387
359 2 2.93068 14.7575 10.2927
360 2 3.68759 13.54 11.0645
361 2 5.97421 12.5924 1.82158
362 2 6.43467 11.2233 2.82864
363 2 2.32373 10.6943 13.9664
364 2 3.87696 10.5596 14.8116
365 2 11.9491 3.47518 0.74097
366 2 12.5806 3.55484 2.25015
367 2 12.3221 12.8989 9.53137
368 2 12.5542 13.4196 11.0078
369 2 13.8072 6.73873 12.7042
370 2 13.243 6.79927 14.1846
371 2 11.5969 1.65831 2.19506
372 2 10.315 1.17368 2.59143
373 2 0.873382 1.63645 0.626539
374 2 2.33308 1.11223 0.233054
375 2 8.06418 -0.198036 7.43918
376 2 8.89431 1.09762 6.87023
377 2 11.9997 11.2253 0.493179
378 2 13.7236 10.8926 0.329632
379 2 13.8742 3.71748 9.8311
380 2 13.6236 3.08021 11.1799
381 2 12.5298 3.37365 4.64729
382 2 11.8114 4.4997 4.3394
383 2 5.21649 10.4306 0.991605
384 2 5.50425 9.55866 15.0627
ITEM: TIMESTEP
400
ITEM: NUMBER OF ATOMS
384
ITEM: BOX BOUNDS pp pp pp
-1.3021218416963443e-01 1.5130212184169675e+01
-1.3021218416963443e-01 1.5130212184169675e+01
-1.3021218416963443e-01 1.5130212184169675e+01
ITEM: ATOMS id type x y z
1 1 4.54444 5.43159 12.6309
2 1 14.6218 3.87515 14.1105
3 1 7.26004 10.8214 3.44478
4 1 1.79116 3.57886 4.40776
5 1 13.5899 9.64009 9.89414
6 1 9.4011 -0.00190156 15.0595
7 1 13.3269 9.73413 6.38436
8 1 3.46231 13.0113 7.94881
9 1 3.41217 6.05934 2.52604
10 1 5.58591 7.4704 2.09623
11 1 13.8239 6.68608 2.00886
12 1 0.619267 10.0396 13.9613
13 1 -0.103225 5.28794 4.86694
14 1 9.65572 6.42504 8.07075
15 1 12.273 6.76915 4.48622
16 1 10.2408 2.64547 6.73195
17 1 4.68342 3.8173 10.6083
18 1 6.87464 10.5304 11.1434
19 1 7.98887 2.0604 14.4393
20 1 5.81066 13.5508 0.496185
21 1 15.1141 13.4089 10.0136
22 1 12.2956 1.88915 5.69995
23 1 10.73 6.39104 13.4912
24 1 1.99429 7.97707 6.42867
25 1 10.7141 9.10412 5.72377
26 1 15.0183 7.85847 4.7909
27 1 1.64912 11.2303 4.45052
28 1 5.97216 0.522358 10.4788
29 1 12.2721 7.85587 0.00151509
30 1 2.04205 6.4318 12.051
31 1 3.33226 5.64411 5.30088
32 1 7.50506 11.9555 7.77946
33 1 3.18361 3.39353 1.87932
34 1 3.28637 12.9062 -0.0301167
35 1 0.0087039 4.94111 7.46009
36 1 10.5215 14.7086 7.31863
37 1 1.02362 14.2456 1.79783
38 1 5.8924 0.89608 13.119
39 1 0.399609 9.74357 2.8763
40 1 12.3045 12.9642 12.3709
41 1 1.10852 11.96 8.19095
42 1 13.4903 13.9231 15.1282
43 1 15.1041 14.8505 4.13626
44 1 8.34861 12.7745 11.8712
45 1 12.0326 5.96444 7.13217
46 1 9.69448 10.3131 7.95071
47 1 10.0943 10.9696 12.8515
48 1 8.5801 12.3295 5.34256
49 1 3.67774 1.70485 13.9681
50 1 6.08498 13.422 13.2319
51 1 4.16956 6.11738 8.70459
52 1 11.1282 0.107486 12.8497
53 1 7.37901 14.035 3.58279
54 1 4.59864 2.18391 3.75802
55 1 12.1664 11.2929 8.51664
56 1 8.84875 10.1857 -0.00421504
57 1 2.04686 1.42556 8.26631
58 1 8.51848 5.27118 11.5845
59 1 0.674925 9.41015 8.76921
60 1 10.1493 10.6184 3.61557
61 1 11.5929 3.85372 14.4059
62 1 10.1429 7.03036 10.5108
63 1 4.66902 10.0916 9.72756
64 1 8.19811 8.06182 1.53179
65 1 13.9614 7.27735 8.10558
66 1 4.87483 14.7119 3.77414
67 1 5.74077 1.71562 6.45429
68 1 1.42658 0.128199 10.2852
69 1 11.2492 12.6046 1.89632
70 1 8.76996 3.926 9.28837
71 1 15.0801 12.5886 5.61337
72 1 4.96564 11.0772 7.26834
73 1 0.770537 7.58237 14.1823
74 1 0.547182 4.19889 11.5332
75 1 15.0423 0.692163 12.6572
76 1 12.3471 12.7018 6.02072
77 1 6.34473 1.06486 1.11653
78 1 5.54758 8.03593 7.50595
79 1 4.73597 3.94544 14.9956
80 1 14.5498 1.73673 0.573584
81 1 8.23552 1.20059 3.01117
82 1 10.3127 2.03883 10.5622
83 1 1.95899 4.17665 8.86724
84 1 12.3569 14.8735 4.35087
85 1 9.74742 4.50558 4.92936
86 1 8.29794 6.10468 14.8119
87 1 2.63617 2.19816 11.5504
88 1 10.1583 14.5851 10.6306
89 1 14.7564 11.3114 1.00619
90 1 9.59176 3.17939 12.6788
91 1 7.61094 3.76059 3.54748
92 1 3.11768 12.6735 2.75297
93 1 13.1236 3.68693 7.93075
94 1 1.27739 7.68771 1.66692
95 1 13.2571 9.80537 12.6045
96 1 6.46014 2.85718 8.93012
97 1 6.08785 4.40584 5.53906
98 1 12.8408 2.15636 12.4748
99 1 8.738 7.23331 5.76939
100 1 2.8387 8.10881 9.96026
101 1 4.31136 12.1447 11.7636
102 1 0.972905 12.2103 12.1794
103 1 6.51586 8.40049 4.64209
104 1 9.27862 9.49795 10.6296
105 1 7.58576 14.4571 8.69994
106 1 1.00984 13.9753 14.002
107 1 7.10415 3.95259 1.01599
108 1 12.5565 6.54622 11.0634
109 1 7.01807 9.44804 13.5999
110 1 6.76382 6.94956 12.7913
111 1 3.79806 9.65472 5.07464
112 1 1.43773 1.08541 5.70721
113 1 8.79211 12.9768 1.20846
114 1 3.64812 15.0008 6.25217
115 1 10.6721 8.16889 2.64541
116 1 3.83284 14.1738 10.1257
117 1 5.17044 11.3173 1.77028
118 1 3.21691 10.8403 13.9904
119 1 12.1952 2.92073 1.67443
120 1 12.3747 13.4618 9.77256
121 1 13.7314 6.63747 13.3695
122 1 10.8039 0.743624 2.37213
123 1 1.80885 1.53023 0.897065
124 1 8.23353 0.716892 6.00203
125 1 12.3181 10.4693 0.15807
126 1 13.2829 3.98946 10.5763
127 1 12.9125 3.97917 4.28912
128 1 4.71095 9.49034 0.167195
129 2 4.57485 4.79524 11.8608
130 2 4.5239 4.92301 13.5034
131 2 14.169 4.73676 14.2554
132 2 -0.045899 4.09603 13.2688
133 2 7.06874 9.92666 3.75914
134 2 8.3234 10.8158 3.08239
135 2 1.06947 4.39132 4.30152
136 2 2.32278 3.53624 3.56403
137 2 14.5437 9.38482 9.75295
138 2 13.3603 9.3527 10.8346
139 2 9.68809 0.260484 0.531187
140 2 8.75966 0.665608 14.7416
141 2 13.1912 9.9618 7.24983
142 2 13.4178 10.5871 5.99417
143 2 3.64365 13.355 8.91434
144 2 3.35919 13.7226 7.25857
145 2 3.53169 5.06344 2.45577
146 2 3.25385 6.33035 3.37496
147 2 5.14874 8.28556 1.62315
148 2 4.8144 6.8895 2.23892
149 2 13.4848 6.64121 2.85512
150 2 14.7894 6.79272 2.01277
151 2 0.752785 8.95701 14.208
152 2 0.214928 10.5081 14.7547
153 2 14.2251 4.54688 4.43657
154 2 15.0857 6.27282 4.55331
155 2 10.3934 6.08637 7.64958
156 2 9.17209 6.73164 7.4233
157 2 12.1448 6.7047 5.39067
158 2 11.5921 7.22 4.17876
159 2 9.72844 3.09487 7.52934
160 2 10.1668 3.42327 6.14207
161 2 3.918 3.28628 10.8271
162 2 5.46144 3.46128 10.0009
163 2 7.68351 9.91955 10.7203
164 2 7.19416 11.4161 10.9655
165 2 7.77559 2.67982 15.068
166 2 7.15109 1.63263 14.1405
167 2 6.09771 13.2721 14.8575
168 2 4.79263 13.5997 0.165774
169 2 14.1384 13.3286 9.85527
170 2 0.171379 13.0551 11.0185
171 2 11.5604 2.11223 6.23054
172 2 12.4748 1.03194 5.23971
173 2 11.2526 6.28625 12.6391
174 2 11.1929 7.00452 14.1268
175 2 1.16459 8.18188 5.8803
176 2 1.73148 8.48838 7.34302
177 2 11.8753 9.37654 5.93072
178 2 10.6209 9.59956 4.90372
179 2 14.2158 8.37116 5.12098
180 2 0.00753934 8.57016 4.07891
181 2 1.06137 11.8439 5.16256
182 2 2.2443 10.5984 4.85742
183 2 6.08589 1.33367 9.94117
184 2 5.2957 15.1045 10.0354
185 2 12.1733 8.88222 0.145061
186 2 12.653 7.42308 0.796459
187 2 2.27694 7.1309 11.4325
188 2 2.85966 5.82444 12.2679
189 2 3.05495 6.40109 5.92788
190 2 2.67541 4.92867 5.31752
191 2 7.31442 12.7138 8.17185
192 2 7.91548 12.082 6.97043
193 2 2.54237 2.67763 1.63834
194 2 3.75297 2.6635 2.07593
195 2 3.29125 12.0518 14.8209
196 2 3.10907 12.6722 0.892857
197 2 -0.0645534 5.02124 6.40334
198 2 14.9736 5.81179 7.87818
199 2 10.9134 14.9444 8.03844
200 2 11.2849 14.1773 6.8043
201 2 1.63493 13.8176 2.29381
202 2 1.31858 -0.0860204 1.74982
203 2 6.10073 -0.022718 13.3121
204 2 5.94881 0.915775 12.2408
205 2 0.919239 9.07612 2.12954
206 2 0.98354 10.3353 3.34551
207 2 11.8829 13.6719 12.8165
208 2 11.8178 12.1665 12.806
209 2 2.07822 12.2066 8.15423
210 2 0.644538 12.5944 8.83301
211 2 13.5568 15.0038 14.7728
212 2 13.4786 13.5795 14.294
213 2 14.2447 14.9403 3.98973
214 2 0.212102 14.6672 3.22186
215 2 8.86421 13.345 11.2766
216 2 8.98792 12.1542 12.3193
217 2 12.6223 6.57565 7.8571