ITEM: TIMESTEP
0
ITEM: NUMBER OF ATOMS
384
ITEM: BOX BOUNDS pp pp pp
0.0000000000000000e+00 1.5645677530000000e+01
0.0000000000000000e+00 1.4707145290000000e+01
0.0000000000000000e+00 1.8073037029999998e+01
ITEM: ATOMS id type x y z
1 1 1.38 1.76 3.37
2 1 5.2 4.47 1.11
3 1 6.59 5.39 3.31
4 1 5.28 4.49 5.56
5 1 2.59 0.84 5.67
6 1 2.69 5.43 5.56
7 1 5.2 1.71 1.07
8 1 5.2 1.73 5.58
9 1 1.32 4.61 7.82
10 1 1.3 4.52 3.36
11 1 2.61 5.41 1.1
12 1 2.59 0.82 1.07
13 1 6.54 0.87 3.33
14 1 6.54 0.88 7.83
15 1 6.51 5.4 7.86
16 1 1.35 1.85 7.92
17 1 9.2 1.76 3.37
18 1 13.05 4.55 1.15
19 1 14.35 5.46 3.4
20 1 13.1 4.49 5.66
21 1 10.41 0.84 5.67
22 1 10.51 5.43 5.65
23 1 13.07 1.79 1.07
24 1 13.02 1.73 5.58
25 1 9.15 4.61 7.91
26 1 9.2 4.52 3.4
27 1 10.45 5.49 1.15
28 1 10.49 0.82 1.12
29 1 14.36 0.87 3.33
30 1 14.36 0.88 7.83
31 1 14.36 5.48 7.9
32 1 9.17 1.85 7.92
33 1 1.3 9.11 3.32
34 1 5.3 11.9 1.11
35 1 6.53 12.81 3.4
36 1 5.2 11.84 5.61
37 1 2.59 8.19 5.58
38 1 2.61 12.79 5.61
39 1 5.25 9.14 1.16
40 1 5.2 9.08 5.67
41 1 1.32 11.96 7.91
42 1 1.38 11.87 3.31
43 1 2.69 12.77 1.06
44 1 2.67 8.17 1.12
45 1 6.49 8.14 3.42
46 1 6.49 8.16 7.92
47 1 6.53 12.83 7.81
48 1 1.35 9.21 7.83
49 1 9.09 9.19 3.37
50 1 13.13 11.9 1.11
51 1 14.44 12.82 3.35
52 1 13.1 11.84 5.56
53 1 10.41 8.19 5.58
54 1 10.51 12.79 5.65
55 1 12.99 9.14 1.12
56 1 13.02 9.08 5.67
57 1 9.12 11.89 7.86
58 1 9.15 11.95 3.4
59 1 10.51 12.77 1.15
60 1 10.38 8.25 1.12
61 1 14.29 8.22 3.37
62 1 14.36 8.24 7.92
63 1 14.36 12.83 7.81
64 1 9.12 9.13 7.83
65 1 1.35 1.83 12.45
66 1 5.2 4.47 10.14
67 1 6.59 5.39 12.34
68 1 5.3 4.56 14.65
69 1 2.67 0.84 14.66
70 1 2.69 5.43 14.6
71 1 5.28 1.71 10.15
72 1 5.25 1.81 14.61
73 1 1.32 4.61 16.85
74 1 1.32 4.59 12.35
75 1 2.63 5.49 10.09
76 1 2.64 0.89 10.2
77 1 6.57 0.79 12.41
78 1 6.54 0.88 16.87
79 1 6.53 5.48 16.94
80 1 1.35 1.85 16.86
81 1 9.2 1.76 12.41
82 1 13.02 4.47 10.14
83 1 14.35 5.46 12.34
84 1 13.05 4.57 14.6
85 1 10.46 0.91 14.71
86 1 10.46 5.51 14.69
87 1 13.1 1.71 10.15
88 1 13.07 1.81 14.61
89 1 9.15 4.61 16.94
90 1 9.2 4.52 12.44
91 1 10.45 5.49 10.18
92 1 10.49 0.82 10.16
93 1 14.39 0.79 12.41
94 1 14.36 0.88 16.87
95 1 14.33 5.4 16.89
96 1 9.17 1.85 16.96
97 1 1.3 9.11 12.45
98 1 5.28 11.83 10.1
99 1 6.59 12.74 12.34
100 1 5.3 11.92 14.65
101 1 2.59 8.19 14.71
102 1 2.69 12.79 14.6
103 1 5.2 9.07 10.2
104 1 5.17 9.16 14.66
105 1 1.38 11.89 16.85
106 1 1.38 11.87 12.35
107 1 2.71 12.84 10.14
108 1 2.56 8.25 10.16
109 1 6.49 8.14 12.46
110 1 6.46 8.24 16.91
111 1 6.61 12.83 16.89
112 1 1.3 9.13 16.96
113 1 9.09 9.19 12.41
114 1 13.13 11.9 10.14
115 1 14.41 12.74 12.44
116 1 13.1 11.84 14.69
117 1 10.38 8.27 14.66
118 1 10.53 12.86 14.64
119 1 12.99 9.14 10.15
120 1 13.02 9.08 14.7
121 1 9.23 11.96 16.9
122 1 9.23 11.95 12.39
123 1 10.51 12.77 10.09
124 1 10.38 8.25 10.16
125 1 14.29 8.22 12.41
126 1 14.31 8.16 16.96
127 1 14.44 12.83 16.89
128 1 9.09 9.21 16.91
129 2 0.46 1.48 3.37
130 2 1.33 2.71 3.37
131 2 5.68 4.81 1.86
132 2 5.67 4.81 0.35
133 2 6.13 5.1 4.1
134 2 6.56 6.34 3.34
135 2 4.38 4.84 5.6
136 2 5.7 4.83 6.36
137 2 2.17 1.18 4.88
138 2 3.49 1.17 5.63
139 2 2.23 5.15 6.35
140 2 2.65 6.39 5.59
141 2 5.65 1.43 1.86
142 2 5.23 2.67 1.1
143 2 5.23 2.69 5.61
144 2 5.65 1.45 6.37
145 2 1.78 4.88 8.61
146 2 1.33 3.65 7.85
147 2 1.78 4.85 4.11
148 2 1.78 4.85 2.6
149 2 3.52 5.14 1.1
150 2 2.64 6.37 1.11
151 2 3.49 1.15 1.11
152 2 2.17 1.16 1.87
153 2 6.09 1.14 4.12
154 2 6.53 14.6171 3.37
155 2 6.09 1.15 8.63
156 2 6.53 14.6371 7.86
157 2 7.43 5.14 7.86
158 2 6.53 6.36 7.86
159 2 1.77 1.51 7.13
160 2 0.46 1.51 7.89
161 2 9.16 2.71 3.37
162 2 8.28 1.48 3.37
163 2 13.06 3.59 1.12
164 2 13.5 4.82 0.36
165 2 13.94 5.12 2.61
166 2 15.25 5.14 3.36
167 2 13.52 4.82 4.86
168 2 12.21 4.84 5.62
169 2 11.31 1.17 5.63
170 2 10 1.18 4.88
171 2 10.47 6.39 5.62
172 2 10.05 5.15 4.86
173 2 12.18 1.46 1.11
174 2 13.49 1.45 1.86
175 2 13.05 2.69 5.61
176 2 13.48 1.45 6.37
177 2 9.61 4.88 7.11
178 2 9.16 3.65 7.88
179 2 8.3 4.84 3.36
180 2 9.61 4.85 2.61
181 2 10.04 5.17 0.35
182 2 11.35 5.14 1.11
183 2 10.02 1.16 0.36
184 2 10.02 1.16 1.88
185 2 13.91 1.14 4.12
186 2 14.35 14.6171 3.37
187 2 13.91 1.15 8.63
188 2 14.36 14.6371 7.86
189 2 13.94 5.14 7.11
190 2 15.26 5.16 7.86
191 2 8.28 1.51 7.89
192 2 9.59 1.51 7.13
193 2 1.75 8.83 4.12
194 2 1.33 10.07 3.36
195 2 4.39 12.19 1.1
196 2 5.25 10.94 1.11
197 2 7.43 12.49 3.36
198 2 6.12 12.48 2.61
199 2 5.68 12.17 4.85
200 2 5.68 12.18 6.37
201 2 2.17 8.54 6.37
202 2 3.49 8.52 5.61
203 2 2.64 13.74 5.61
204 2 3.52 12.51 5.61
205 2 4.35 8.81 1.13
206 2 5.66 8.81 0.36
207 2 5.23 10.04 5.63
208 2 5.65 8.8 4.88
209 2 1.78 12.24 7.11
210 2 1.34 11.01 7.88
211 2 0.48 12.2 3.35
212 2 1.79 12.21 4.11
213 2 2.23 12.49 1.85
214 2 2.65 13.72 1.09
215 2 2.19 8.52 1.88
216 2 2.2 8.52 0.36
217 2 7.38 8.49 3.39
218 2 6.07 8.48 2.63
219 2 6.07 8.5 7.13
220 2 7.38 8.51 7.89
221 2 6.12 12.49 8.61
222 2 7.43 12.51 7.85
223 2 0.46 8.86 7.86
224 2 1.77 8.86 8.62
225 2 9.57 8.85 4.13
226 2 9.57 8.84 2.61
227 2 12.21 12.19 1.1
228 2 13.08 10.94 1.11
229 2 13.95 12.48 2.6
230 2 13.95 12.48 4.11
231 2 13.52 12.18 6.36
232 2 12.21 12.19 5.6
233 2 11.31 8.52 5.61
234 2 10 8.54 6.37
235 2 10.47 13.74 5.62
236 2 10.05 12.51 4.86
237 2 13.47 8.8 1.87
238 2 13.47 8.81 0.36
239 2 13.48 8.8 4.88
240 2 13.05 10.04 5.63
241 2 9.6 12.22 8.62
242 2 9.6 12.22 7.11
243 2 9.16 10.99 3.37
244 2 9.61 12.22 2.61
245 2 10.48 13.72 1.13
246 2 10.05 12.49 0.35
247 2 11.3 8.53 1.12
248 2 10.43 7.29 1.11
249 2 15.2 8.51 3.37
250 2 14.34 7.26 3.37
251 2 14.36 7.28 7.88
252 2 13.91 8.52 7.13
253 2 15.26 12.51 7.85
254 2 13.94 12.49 8.61
255 2 9.15 10.09 7.86
256 2 9.57 8.85 8.62
257 2 1.77 1.49 11.66
258 2 0.46 1.49 12.42
259 2 5.68 4.81 10.9
260 2 5.67 4.81 9.38
261 2 6.56 6.34 12.38
262 2 6.13 5.1 13.14
263 2 4.39 4.85 14.65
264 2 5.25 3.61 14.65
265 2 2.19 1.18 13.9
266 2 2.19 1.18 15.42
267 2 2.23 5.15 15.39
268 2 2.65 6.39 14.63
269 2 4.36 1.44 10.15
270 2 5.24 2.67 10.15
271 2 4.35 1.48 14.65
272 2 5.66 1.47 15.41
273 2 1.78 4.88 17.65
274 2 1.33 3.65 16.89
275 2 1.78 4.87 13.14
276 2 1.34 3.64 12.39
277 2 2.21 5.16 10.89
278 2 3.52 5.14 10.13
279 2 2.19 1.18 9.41
280 2 2.63 14.6471 10.16
281 2 6.09 1.13 11.65
282 2 6.09 1.14 13.17
283 2 6.53 14.6371 16.9
284 2 6.09 1.15 17.67
285 2 7.43 5.16 16.9
286 2 6.12 5.14 16.15
287 2 0.46 1.51 16.89
288 2 1.77 1.51 17.66
289 2 8.28 1.48 12.41
290 2 9.16 2.71 12.4
291 2 13.5 4.81 9.38
292 2 13.5 4.81 10.9
293 2 15.25 5.14 12.39
294 2 13.94 5.13 13.14
295 2 13.51 4.84 15.39
296 2 13.06 3.61 14.64
297 2 10.46 14.6671 14.67
298 2 10.01 1.19 13.91
299 2 11.35 5.16 14.65
300 2 10.04 5.17 13.9
301 2 13.07 2.67 10.15
302 2 12.18 1.44 10.15
303 2 13.49 1.47 15.41
304 2 12.18 1.48 14.65
305 2 9.16 3.65 16.91
306 2 9.61 4.88 16.15
307 2 9.61 4.85 11.64
308 2 8.3 4.84 12.4
309 2 10.04 5.17 9.39
310 2 11.35 5.14 10.15
311 2 10.02 1.16 10.91
312 2 10.02 1.16 9.4
313 2 13.92 1.13 11.65
314 2 13.92 1.14 13.17
315 2 13.91 1.15 17.67
316 2 14.36 14.6371 16.9
317 2 14.36 6.36 16.9
318 2 15.25 5.14 16.9
319 2 8.28 1.51 16.93
320 2 9.59 1.51 16.17
321 2 1.75 8.83 11.66
322 2 1.33 10.07 12.41
323 2 5.7 12.16 10.89
324 2 4.38 12.17 10.13
325 2 6.13 12.46 13.14
326 2 6.56 13.7 12.38
327 2 4.39 12.21 14.65
328 2 5.25 10.96 14.65
329 2 3.49 8.52 14.67
330 2 2.17 8.53 13.91
331 2 2.65 13.74 14.63
332 2 2.23 12.5 15.39
333 2 5.22 10.02 10.17
334 2 5.65 8.79 9.4
335 2 5.65 8.81 13.9
336 2 5.65 8.82 15.42
337 2 0.48 12.22 16.89
338 2 1.79 12.22 17.65
339 2 0.48 12.2 12.39
340 2 1.79 12.21 13.14
341 2 2.23 12.52 9.38
342 2 2.23 12.51 10.89
343 2 2.61 7.29 10.15
344 2 3.48 8.53 10.16
345 2 7.38 8.49 12.42
346 2 6.07 8.48 11.66
347 2 6.52 7.28 16.91
348 2 7.37 8.53 16.91
349 2 6.14 12.5 17.65
350 2 6.13 12.5 16.14
351 2 1.75 8.84 16.16
352 2 1.33 10.09 16.92
353 2 9.57 8.85 13.16
354 2 9.57 8.84 11.65
355 2 13.08 10.94 10.15
356 2 12.21 12.19 10.14
357 2 14.37 13.7 12.41
358 2 13.95 12.46 11.65
359 2 12.21 12.19 14.66
360 2 13.52 12.17 13.9
361 2 11.3 8.55 14.66
362 2 10.43 7.31 14.66
363 2 10.05 12.53 15.4
364 2 10.05 12.52 13.89
365 2 13.47 8.81 9.39
366 2 13.47 8.8 10.91
367 2 13.48 8.8 13.91
368 2 13.05 10.04 14.67
369 2 9.19 11.01 16.9
370 2 8.31 12.24 16.9
371 2 8.31 12.22 12.39
372 2 9.19 10.99 12.4
373 2 10.48 13.72 10.13
374 2 10.05 12.49 10.88
375 2 10.43 7.29 10.15
376 2 11.3 8.53 10.16
377 2 15.2 8.51 12.41
378 2 14.34 7.26 12.4
379 2 15.2 8.51 16.93
380 2 13.89 8.5 16.17
381 2 13.96 12.5 17.65
382 2 13.95 12.5 16.14
383 2 9.57 8.86 16.15
384 2 9.56 8.86 17.67
ITEM: TIMESTEP
200
ITEM: NUMBER OF ATOMS
384
ITEM: BOX BOUNDS pp pp pp
2.4136573719089505e-01 1.5404311792809107e+01
2.3499875751976607e-01 1.4472146532480238e+01
3.2049711169290340e-01 1.7752539918307097e+01
ITEM: ATOMS id type x y z
1 1 1.32789 1.72755 3.30269
2 1 5.04702 4.40387 1.021
3 1 6.39683 5.26325 3.27665
4 1 5.00417 4.33464 5.43573
5 1 2.60358 0.682149 5.45943
6 1 2.45583 5.26939 5.40783
7 1 5.10003 1.78015 1.05767
8 1 5.14976 1.62404 5.47874
9 1 1.26084 4.31497 7.59438
10 1 1.27762 4.37154 3.28105
11 1 2.46464 5.31308 1.14293
12 1 2.49725 0.838821 1.08405
13 1 6.2739 0.874066 3.22928
14 1 6.26236 0.76357 7.71029
15 1 6.30351 5.28562 7.5629
16 1 1.46812 1.67623 7.55544
17 1 8.80172 1.78154 3.19314
18 1 12.6534 4.39234 1.00755
19 1 14.0051 5.20154 3.19983
20 1 12.7665 4.34724 5.41218
21 1 10.1469 0.827821 5.34281
22 1 10.164 5.22696 5.49742
23 1 12.7633 1.70902 1.03541
24 1 12.6664 1.75674 5.35009
25 1 8.86344 4.25097 7.5798
26 1 8.91827 4.43413 3.23733
27 1 10.1254 5.34988 1.04938
28 1 10.1717 0.95343 1.08603
29 1 13.8999 0.747294 3.16037
30 1 14.0119 0.893755 7.63569
31 1 13.9489 5.22781 7.64878
32 1 8.85703 1.57602 7.56144
33 1 1.32294 8.75776 3.21472
34 1 5.03534 11.4984 1.14067
35 1 6.31345 12.3954 3.26549
36 1 4.9808 11.5211 5.36473
37 1 2.52667 8.03382 5.44127
38 1 2.43881 12.3148 5.3269
39 1 5.14194 8.88228 1.18318
40 1 5.06697 8.87794 5.3602
41 1 1.36753 11.5623 7.50826
42 1 1.28592 11.4635 3.09397
43 1 2.52603 12.3985 1.03028
44 1 2.56422 7.88014 1.08524
45 1 6.32322 7.97037 3.28415
46 1 6.2887 7.89378 7.5485
47 1 6.28513 12.3557 7.57126
48 1 1.3133 8.87961 7.6086
49 1 8.85717 8.78725 3.28349
50 1 12.694 11.4473 1.01791
51 1 13.9476 12.2789 3.17274
52 1 12.76 11.5923 5.43171
53 1 10.0773 7.86678 5.44772
54 1 10.1767 12.3507 5.41575
55 1 12.687 8.84515 1.20663
56 1 12.572 8.76981 5.30662
57 1 8.75697 11.4004 7.52957
58 1 8.87963 11.4448 3.21319
59 1 10.0846 12.422 1.13293
60 1 10.0834 8.01401 1.10502
61 1 13.9481 7.97943 3.29786
62 1 13.8355 7.89933 7.4995
63 1 13.9564 12.5437 7.6535
64 1 8.80714 8.78175 7.58895
65 1 1.35539 1.62574 12.0169
66 1 5.03508 4.41841 9.78971
67 1 6.29889 5.38409 11.8862
68 1 5.15667 4.35851 14.0789
69 1 2.62844 0.901407 14.2394
70 1 2.63966 5.32355 14.1556
71 1 5.20486 1.74624 9.87434
72 1 5.08906 1.66979 14.226
73 1 1.35106 4.45532 16.3203
74 1 1.38966 4.41176 12.0057
75 1 2.58292 5.23549 9.75247
76 1 2.54584 0.911575 9.80502
77 1 6.35353 0.819464 12.0008
78 1 6.3511 0.766075 16.3628
79 1 6.33407 5.36543 16.3365
80 1 1.25794 1.68127 16.413
81 1 8.83313 1.69899 11.949
82 1 12.755 4.41239 9.74948
83 1 14.0164 5.29389 11.9522
84 1 12.6258 4.41311 14.0229
85 1 10.1751 0.842296 14.1653
86 1 10.0701 5.22151 14.0457
87 1 12.622 1.7848 9.72703
88 1 12.6553 1.73396 14.1671
89 1 8.85337 4.43944 16.355
90 1 8.79397 4.39888 11.8993
91 1 10.1847 5.28693 9.72039
92 1 10.1358 0.809254 9.77085
93 1 13.8909 0.815805 11.9418
94 1 14.0049 0.771669 16.3738
95 1 13.9773 5.26668 16.2397
96 1 8.90412 1.84923 16.3486
97 1 1.22378 8.82838 11.8876
98 1 5.05621 11.5897 9.76322
99 1 6.3519 12.4096 11.9171
100 1 5.13209 11.4548 14.1619
101 1 2.56214 7.99754 14.167
102 1 2.63171 12.4189 14.0802
103 1 4.98856 8.92743 9.71102
104 1 5.02893 8.80606 14.2428
105 1 1.40446 11.4589 16.2351
106 1 1.31033 11.511 11.969
107 1 2.4903 12.4401 9.85096
108 1 2.51919 7.92498 9.7664
109 1 6.17565 7.98003 11.8584
110 1 6.3361 7.95913 16.3848
111 1 6.34713 12.373 16.3394
112 1 1.20775 8.79708 16.2662
113 1 8.834 8.70283 11.9853
114 1 12.6429 11.5481 9.7434
115 1 13.9009 12.4139 11.9717
116 1 12.7637 11.517 14.1665
117 1 10.0784 7.89411 14.2484
118 1 10.185 12.4029 14.1619
119 1 12.6194 8.87016 9.69537
120 1 12.6117 8.86488 14.1993
121 1 8.86868 11.5671 16.3005
122 1 8.94798 11.4723 12.0035
123 1 10.0973 12.3629 9.74242
124 1 10.1463 7.91869 9.79402
125 1 13.771 7.94747 12.0364
126 1 13.869 7.88386 16.3544
127 1 14.0639 12.4139 16.3069
128 1 8.83657 8.88468 16.3664
129 2 0.425486 1.41965 3.40794
130 2 1.33124 2.75959 3.22572
131 2 5.46115 4.64013 1.82728
132 2 5.54533 4.86166 17.5543
133 2 5.92382 4.73215 4.07848
134 2 6.37153 6.23753 3.34098
135 2 3.93961 4.63525 5.33972
136 2 5.49135 4.62161 6.3801
137 2 1.995 1.12668 4.7704
138 2 3.46605 1.14145 5.45403
139 2 1.98478 5.20975 6.21208
140 2 2.72142 6.20746 5.37
141 2 5.47289 1.24461 1.8773
142 2 5.20512 2.66293 1.19371
143 2 4.84877 2.58263 5.58536
144 2 5.58218 1.33174 6.26352
145 2 1.83463 4.52283 8.44349
146 2 1.2996 3.38468 7.54155
147 2 1.78087 4.49666 4.0984
148 2 1.63967 4.76126 2.43902
149 2 3.49613 4.86256 1.17666
150 2 2.52448 6.28799 1.03533
151 2 3.55515 1.17512 1.06257
152 2 2.15373 1.27129 1.85471
153 2 5.85026 1.15419 4.21325
154 2 6.21986 14.1254 3.38489
155 2 5.67708 1.18417 8.39749
156 2 6.33735 14.0573 7.6692
157 2 7.40469 5.03907 7.41845
158 2 6.432 6.30874 7.40715
159 2 1.96759 1.2097 6.8309
160 2 0.650964 1.33257 7.6529
161 2 8.79987 2.65235 3.30193
162 2 7.78184 1.64913 3.04711
163 2 12.6362 3.43204 0.894396
164 2 13.1489 4.79699 0.335387
165 2 13.6202 4.87799 2.3716
166 2 14.9352 4.95345 3.3549
167 2 13.2365 4.81652 4.54082
168 2 11.7957 4.78622 5.19774
169 2 11.0102 1.27366 5.42297
170 2 9.51362 1.19436 4.6434
171 2 10.0904 6.2265 5.3781
172 2 9.58035 4.95224 4.68719
173 2 11.8498 1.55924 1.01363
174 2 13.3705 1.44429 1.74065
175 2 12.8311 2.79429 5.49905
176 2 13.1311 1.55612 6.05765
177 2 9.37113 4.56377 6.68254
178 2 8.78303 3.15619 7.5248
179 2 8.17195 4.90134 3.33384
180 2 9.31042 4.75738 2.26241
181 2 9.6134 5.03685 0.337675
182 2 11.1789 4.95513 0.818549
183 2 9.45215 1.37162 0.396228
184 2 9.45155 1.40161 1.72081
185 2 13.3225 1.17688 3.938
186 2 14.0375 14.1284 3.33398
187 2 13.5443 1.31199 8.3808
188 2 14.0323 13.7939 7.72752
189 2 13.4923 4.95902 6.70411
190 2 15.0074 5.04422 7.61129
191 2 7.86961 1.20021 7.32413
192 2 9.48004 1.26188 6.71431
193 2 1.86399 8.52751 4.04237
194 2 1.44 9.68366 3.07694
195 2 4.1939 11.7416 1.18565
196 2 5.28017 10.4182 1.05635
197 2 7.23385 11.9668 3.23638
198 2 6.01613 12.1558 2.43807
199 2 5.71039 11.9035 4.66231
200 2 5.41128 11.8015 6.20213
201 2 2.10666 8.46515 6.01319
202 2 3.69608 8.5084 5.48195
203 2 2.55828 13.3278 5.18831
204 2 3.44193 12.0761 5.17572
205 2 4.17337 8.51119 1.20894
206 2 5.45404 8.37995 0.547106
207 2 5.16653 9.90086 5.35326
208 2 5.54693 8.61126 4.5576
209 2 1.77892 11.9332 6.7375
210 2 1.21545 10.6045 7.38396
211 2 0.406754 11.9669 3.08248
212 2 1.77224 11.8333 3.97038
213 2 1.85856 12.1163 1.85552
214 2 2.61494 13.3882 0.924992
215 2 2.03975 8.09436 1.83768
216 2 2.00018 8.3739 0.36449
217 2 7.22573 8.47076 3.22256
218 2 5.98082 8.31756 2.55305
219 2 5.91486 8.17324 6.85977
220 2 7.30735 8.4462 7.47756
221 2 5.79373 11.9938 8.46113
222 2 7.09815 11.8448 7.60102
223 2 0.331494 8.40694 7.5186
224 2 1.71438 8.47366 8.33971
225 2 9.37503 8.36362 4.08642
226 2 9.25194 8.53083 2.43236
227 2 11.8199 11.9279 1.03439
228 2 12.4193 10.4994 1.09349
229 2 13.3242 11.9297 2.38654
230 2 13.4418 12.007 4.09267
231 2 13.3046 12.096 6.12396
232 2 11.7298 11.9483 5.60741
233 2 11.1131 8.26837 5.47613
234 2 9.59107 8.41893 6.30472
235 2 10.2628 13.3447 5.37302
236 2 9.59881 12.1401 4.61417
237 2 13.1984 8.72796 2.04609
238 2 13.1169 8.69158 17.6892
239 2 13.1099 8.64532 4.41849
240 2 12.4328 9.76712 5.44331
241 2 9.38494 11.9152 8.04336
242 2 9.08007 11.7813 6.57906
243 2 9.02848 10.4843 3.15498
244 2 9.23085 11.5518 2.33033
245 2 9.90466 13.389 1.23534
246 2 9.76065 12.203 17.7426
247 2 11.0841 8.34067 1.12629
248 2 10.1971 6.9936 1.03656
249 2 14.82 8.28006 3.33373
250 2 14.1019 6.87899 3.21389
251 2 13.6523 7.03394 7.56264
252 2 13.315 8.45619 6.60147
253 2 14.9127 12.1533 7.54869
254 2 13.5196 12.237 8.44948
255 2 8.85997 9.6756 7.48492
256 2 9.33191 8.4021 8.3948
257 2 1.84095 1.27405 11.2355
258 2 0.586491 1.31499 11.9821
259 2 5.64331 4.73768 10.5099
260 2 5.48794 4.95976 9.10276
261 2 6.16385 6.4481 11.9274
262 2 6.07801 4.81487 12.6425
263 2 4.17355 4.69041 14.0789
264 2 4.94572 3.32646 13.9554
265 2 1.8085 1.31478 13.8222
266 2 2.32119 1.09576 15.2029
267 2 2.38324 4.86396 15.0286
268 2 2.70081 6.27711 14.2551
269 2 4.20807 1.43548 9.79475
270 2 5.23096 2.69757 9.76195
271 2 4.23916 1.19919 14.2337
272 2 5.68834 1.48811 14.9015
273 2 1.60266 4.75063 17.1829
274 2 1.25957 3.40615 16.2262
275 2 1.94841 4.72061 12.9981
276 2 1.45697 3.42502 12.0309
277 2 2.25733 4.92353 10.5924
278 2 3.60846 4.94636 9.84988
279 2 2.11576 1.11047 8.91073
280 2 2.56608 14.1673 9.8232
281 2 5.64984 1.17529 11.1927
282 2 5.96186 0.957763 12.8398
283 2 6.52202 14.0495 16.5721
284 2 6.05429 1.18226 17.1813
285 2 7.44156 5.03832 16.2554
286 2 5.90693 4.99299 15.6049
287 2 0.332442 1.40829 16.455
288 2 1.84782 1.76011 17.2063
289 2 7.93825 1.23858 11.978
290 2 8.75661 2.62768 11.8743
291 2 13.3614 4.68617 8.95391
292 2 13.3838 4.69308 10.5823
293 2 14.9842 5.21124 12.1261
294 2 13.6747 5.02898 12.9239
295 2 12.9371 4.87311 14.8497
296 2 12.7445 3.45226 14.1516
297 2 10.3623 14.2557 14.0229
298 2 9.69167 0.959695 13.4124
299 2 10.9506 4.83921 13.9408
300 2 9.55421 5.08035 13.1354
301 2 12.7153 2.85436 9.81148
302 2 11.8668 1.25941 10.0096
303 2 13.2549 1.62674 15.0346
304 2 11.599 1.46029 13.9532
305 2 8.88017 3.53643 16.4834
306 2 9.30171 4.45854 15.4956
307 2 9.25291 4.73436 10.8442
308 2 7.86051 4.77778 11.9173
309 2 9.73279 4.95934 8.81046
310 2 11.0036 4.86355 9.82633
311 2 9.52874 1.23054 10.6395
312 2 9.72239 1.19667 8.90926
313 2 13.4694 1.36705 11.1859
314 2 13.2233 1.19903 12.4852
315 2 13.5832 1.11676 17.1705
316 2 14.1116 14.132 16.2852
317 2 13.796 6.41373 16.276
318 2 14.8168 5.04254 16.2169
319 2 8.027 1.41337 16.3701
320 2 9.41857 1.33058 15.6208
321 2 1.585 8.7477 11.1509
322 2 1.0849 9.8979 11.9043
323 2 5.59826 11.9302 10.4185
324 2 4.01426 11.8953 9.75436
325 2 5.87735 12.0694 12.8053
326 2 6.50504 13.3765 11.9501
327 2 4.15814 11.871 14.1481
328 2 4.78638 10.4307 13.9331
329 2 3.416 8.42975 14.132
330 2 2.09366 8.39451 13.5103
331 2 2.69435 13.4298 14.1674
332 2 1.95845 11.9694 14.7585
333 2 4.95933 9.85613 9.73772
334 2 5.69587 8.47248 8.97547
335 2 5.60603 8.54854 13.3953
336 2 5.84923 8.61245 15.0621
337 2 0.580261 11.6936 16.4027
338 2 1.88359 11.8737 16.9863
339 2 15.3949 11.8381 12.0392
340 2 1.95996 11.7652 12.5619
341 2 2.10626 11.9186 9.0631
342 2 1.98381 11.9846 10.6979
343 2 2.25784 6.96667 9.92521
344 2 3.44159 8.11691 9.60992
345 2 7.00949 8.40301 11.713
346 2 5.69705 8.51104 11.1657
347 2 6.32399 6.84922 16.4538
348 2 7.34164 8.42751 16.5059
349 2 6.07282 11.8868 17.1524
350 2 5.80471 11.9118 15.6121
351 2 1.97363 8.57477 15.4303
352 2 1.29372 9.75739 16.3411
353 2 9.4089 8.40372 12.7599
354 2 9.27842 8.25341 11.011
355 2 12.6079 10.7028 9.9299
356 2 11.6922 11.8138 9.76418
357 2 13.7856 13.4925 11.9305
358 2 13.5797 12.17 11.047
359 2 11.9469 11.9555 14.1106
360 2 13.34 11.8253 13.317
361 2 10.9931 8.18826 14.4291
362 2 10.1361 6.79361 14.1696
363 2 9.70296 11.8384 14.9201
364 2 9.82057 12.1983 13.3563
365 2 12.9333 8.4828 8.95969
366 2 13.0809 8.30309 10.4003
367 2 13.1162 8.55072 13.2129
368 2 12.4865 9.82578 14.2084
369 2 9.00017 10.4878 16.3001
370 2 7.9535 11.6974 16.2505
371 2 8.00613 11.8428 12.0231
372 2 8.92078 10.462 12.0407
373 2 9.99345 13.4334 9.91663
374 2 9.55223 12.1843 10.4606
375 2 10.1971 6.93455 9.52881
376 2 10.9772 8.33199 9.61031
377 2 14.7418 8.26017 11.9925
378 2 13.888 6.95199 12.0506
379 2 14.7773 8.40859 16.1239
380 2 13.298 8.27047 15.5411
381 2 13.4983 12.0962 17.1992
382 2 13.6858 12.2348 15.5582
383 2 9.17497 8.63646 15.4584
384 2 9.25487 8.51029 17.3224
ITEM: TIMESTEP
400
ITEM: NUMBER OF ATOMS
384
ITEM: BOX BOUNDS pp pp pp
4.6654049692420863e-01 1.5179137033075790e+01
4.3348055518130035e-01 1.4273664734818711e+01
6.2313843955395143e-01 1.7449898590446061e+01
ITEM: ATOMS id type x y z
1 1 1.41692 1.64593 3.30959
2 1 4.99339 4.43295 1.10471
3 1 6.28894 5.157 3.25977
4 1 4.85495 4.20477 5.14147
5 1 2.51952 0.541532 5.3046
6 1 2.46919 5.11141 5.30798
7 1 4.86506 1.7105 1.18107
8 1 4.97021 1.58299 5.19628
9 1 1.18408 4.34391 7.38847
10 1 1.23528 4.30498 3.16449
11 1 2.48262 5.0386 0.977531
12 1 2.4947 0.989054 1.09517
13 1 6.17431 0.83828 3.21554
14 1 6.23301 0.798267 7.36417
15 1 6.14862 5.10809 7.1292
16 1 1.39807 1.67089 7.33201
17 1 8.57853 1.80899 3.1438
18 1 12.2027 4.15521 0.779792
19 1 13.3951 5.01296 2.97106
20 1 12.2756 4.15785 5.06868
21 1 9.87471 0.659272 5.11169
22 1 9.8401 5.10825 5.22816
23 1 12.251 1.5489 1.00642
24 1 12.4259 1.55721 5.29562
25 1 8.62271 4.11439 7.29013
26 1 8.68732 4.41478 3.00941
27 1 9.89318 5.16736 0.842221
28 1 9.7858 0.903931 1.08737
29 1 13.6268 0.890853 3.1603
30 1 13.6443 0.806068 7.4936
31 1 13.5493 5.20174 7.1423
32 1 8.743 1.50465 7.29365
33 1 1.31793 8.45652 3.11792
34 1 4.98045 11.1169 1.03354
35 1 6.23393 12.0378 2.98205
36 1 4.93891 11.245 5.13397
37 1 2.42921 7.74186 5.32174
38 1 2.36881 11.8617 5.22019
39 1 4.80811 8.53302 1.07058
40 1 4.94137 8.60389 5.15158
41 1 1.23577 11.0543 7.38916
42 1 1.23403 11.1486 3.06309
43 1 2.56817 12.1973 1.05464
44 1 2.37093 7.66334 0.974229
45 1 6.21626 7.74 3.08836
46 1 6.07041 7.78492 7.30211
47 1 6.0031 12.0527 7.33501
48 1 1.109 8.48461 7.34192
49 1 8.74711 8.54349 3.1153
50 1 12.2776 11.1518 1.14618
51 1 13.4782 12.1605 3.10736
52 1 12.3387 11.3876 5.20916
53 1 9.88997 7.62262 5.27781
54 1 9.76994 11.9374 5.27333
55 1 12.3824 8.56782 1.11478
56 1 12.2587 8.72725 5.16102
57 1 8.44303 11.1788 7.2809
58 1 8.70518 11.1526 3.09942
59 1 9.9476 12.1353 1.00648
60 1 9.86992 7.73173 1.0547
61 1 13.5511 7.6529 3.1568
62 1 13.3381 7.8184 7.20741
63 1 13.5058 12.1076 7.48668
64 1 8.45844 8.61412 7.26743
65 1 1.38698 1.62391 11.6013
66 1 5.00769 4.29697 9.3871
67 1 6.17179 5.27789 11.5851
68 1 4.93648 4.50494 13.574
69 1 2.54911 0.740195 13.682
70 1 2.43871 5.2505 13.6698
71 1 5.06356 1.70494 9.62541
72 1 4.91942 1.83077 13.7915
73 1 1.15583 4.28478 15.7085
74 1 1.35164 4.18138 11.6948
75 1 2.50494 5.13548 9.59487
76 1 2.56183 0.801515 9.52966
77 1 6.20529 0.702557 11.7491
78 1 6.07644 0.778063 15.8621
79 1 6.32808 5.16387 15.7391
80 1 1.20203 1.62135 15.7675
81 1 8.48501 1.70018 11.5556
82 1 12.3705 4.31932 9.44201
83 1 13.5747 5.09824 11.6136
84 1 12.2244 4.18408 13.5243
85 1 9.75828 0.780532 13.5652
86 1 9.72791 4.94078 13.5
87 1 12.2064 1.74099 9.58929
88 1 12.2763 1.49533 13.7217
89 1 8.70374 4.1073 15.6337
90 1 8.52504 4.26803 11.281
91 1 9.85833 5.18936 9.28134
92 1 9.95496 0.682048 9.51816
93 1 13.6266 0.929564 11.5324
94 1 13.6203 0.571353 15.8391
95 1 13.4562 5.19777 15.5246
96 1 8.6384 1.50913 15.7527
97 1 1.18794 8.75995 11.5744
98 1 4.86839 11.2434 9.54553
99 1 6.18018 11.963 11.6835
100 1 4.8613 11.2345 13.7567
101 1 2.42657 7.72418 13.5489
102 1 2.44633 12.0339 13.5946
103 1 4.76705 8.60171 9.45375
104 1 4.74028 8.6841 13.6742
105 1 1.35359 11.0533 15.808
106 1 1.2692 11.3661 11.495
107 1 2.41259 12.1253 9.37162
108 1 2.30932 7.67923 9.48612
109 1 6.11137 7.86033 11.5293
110 1 6.18544 7.75876 15.7528
111 1 6.18045 12.0558 15.7716
112 1 1.28841 8.55575 15.7915
113 1 8.67133 8.62586 11.4635
114 1 12.2008 11.226 9.4721
115 1 13.5303 12.2279 11.4841
116 1 12.2096 11.2839 13.5047
117 1 9.74352 7.60355 13.7135
118 1 9.71277 12.045 13.4939
119 1 12.2605 8.62197 9.46972
120 1 12.2352 8.64287 13.5706
121 1 8.65963 11.3153 15.8102
122 1 8.56846 11.099 11.4771
123 1 9.71505 12.0009 9.48677
124 1 9.80009 7.73484 9.41227
125 1 13.5422 7.74247 11.5315
126 1 13.4829 7.74503 15.6721
127 1 13.5615 11.7711 15.7406
128 1 8.52511 8.58464 15.7848
129 2 0.50137 1.3889 3.24776
130 2 1.30502 2.56121 3.19433
131 2 5.55261 4.65858 1.90257
132 2 5.80363 4.7653 17.1343
133 2 5.57416 4.70838 3.94184
134 2 6.29472 6.16022 3.32047
135 2 3.70333 4.70915 5.19083
136 2 5.61521 4.68897 5.97725
137 2 2.05844 1.06134 4.43489
138 2 3.46747 0.955042 5.25662
139 2 1.97854 4.94645 6.29703
140 2 2.36042 6.14101 5.36962
141 2 5.35257 1.3666 2.13989
142 2 4.92191 2.80957 1.09705
143 2 4.63253 2.5631 5.14083
144 2 5.30376 1.4569 6.3302
145 2 1.55753 4.60399 8.30388
146 2 1.22023 3.41416 7.55546
147 2 1.65161 4.64449 3.95437
148 2 1.69527 4.73137 2.59462
149 2 3.49578 4.8056 0.918108
150 2 2.50643 5.94878 1.2699
151 2 3.42733 1.60187 1.21572
152 2 2.01572 1.33732 1.822
153 2 5.79735 1.09207 4.12673
154 2 6.30805 13.7212 3.25145
155 2 5.97277 1.06766 8.23345
156 2 6.39263 13.7224 7.4584
157 2 7.11857 4.72598 7.07462
158 2 6.01428 6.0992 7.19711
159 2 1.71377 1.22492 6.40204
160 2 0.555719 1.15333 7.30474
161 2 8.61315 2.954 3.28185
162 2 7.52833 1.40135 3.31058
163 2 11.8857 3.22242 0.779361
164 2 12.5383 4.3555 16.7108
165 2 12.9703 4.62849 1.96592
166 2 14.233 4.53737 2.73514
167 2 12.6724 4.52682 4.13862
168 2 11.5081 4.52606 5.00842
169 2 10.7261 1.1929 5.30669
170 2 9.50088 1.15756 4.33357
171 2 9.62341 6.13015 5.25375
172 2 9.29654 4.93286 4.28739
173 2 11.3048 1.27009 1.08586
174 2 12.6062 1.30974 1.7952
175 2 12.3468 2.59899 5.29608
176 2 12.8811 1.3185 6.09417
177 2 9.07168 4.5014 6.39871
178 2 8.57501 3.08501 7.37414
179 2 7.71499 4.70961 3.10197
180 2 9.12321 4.67968 2.09801
181 2 9.21555 4.79416 16.9329
182 2 10.9046 4.84858 0.88142
183 2 9.04771 1.26189 17.1021
184 2 9.18068 1.29775 1.83004
185 2 13.1995 1.22602 3.83792
186 2 13.4377 13.7791 3.01269
187 2 13.1706 1.28044 8.287
188 2 13.6816 13.6785 7.83024
189 2 13.201 4.53017 6.38959
190 2 14.4108 4.95597 7.52526
191 2 7.77837 1.27749 7.20614
192 2 9.22647 1.04158 6.50734
193 2 1.84532 8.0585 3.8596
194 2 1.08071 9.47621 3.36312
195 2 4.11805 11.5732 1.03522
196 2 4.79309 10.1758 1.08446
197 2 7.2154 11.8153 3.08295
198 2 5.68319 11.6651 2.22389
199 2 5.58679 11.4458 4.48423
200 2 5.30625 11.6595 5.98248
201 2 1.96264 7.82169 6.09756
202 2 3.45528 8.07777 5.33881
203 2 2.28948 12.7852 5.09541
204 2 3.43509 11.7777 5.27218
205 2 3.79199 8.08714 1.13854
206 2 5.20871 8.52003 16.9245
207 2 5.05086 9.58569 4.97048
208 2 5.55172 8.18571 4.36328
209 2 1.85128 11.263 6.51054
210 2 0.967025 10.1554 7.59325
211 2 15.039 11.6125 3.10964
212 2 1.56839 11.4843 3.93704
213 2 1.86668 11.9266 1.8156
214 2 2.66221 13.1076 1.15446
215 2 1.91412 8.14389 1.60947
216 2 2.02711 8.05018 16.8821
217 2 7.2152 7.86309 2.82846
218 2 5.7624 8.03504 2.22201
219 2 5.54066 8.05719 6.4984
220 2 6.94459 8.42898 7.2953
221 2 5.53263 11.7311 8.15905
222 2 7.04486 11.8148 7.45963
223 2 14.7803 8.24691 7.18625
224 2 1.28735 8.24554 8.31059
225 2 9.12105 8.28187 4.03034
226 2 9.14872 7.95733 2.33262
227 2 11.3016 11.6406 0.985685
228 2 12.3473 10.2212 0.911351
229 2 13.1444 11.7684 2.25946
230 2 13.0853 11.8495 3.92933
231 2 12.7627 11.8678 6.06712
232 2 11.1978 11.5004 5.23602
233 2 10.9125 8.07486 5.13535
234 2 9.31599 8.17051 6.01495
235 2 9.89005 13.0316 5.17106
236 2 9.46975 11.5718 4.38368
237 2 12.8365 8.08474 1.91493
238 2 12.7925 8.35213 16.9564
239 2 12.774 8.3925 4.51512
240 2 12.3347 9.85867 5.21384
241 2 9.0116 11.4413 8.1207
242 2 9.06886 11.5008 6.6775
243 2 8.56724 10.1105 3.02285
244 2 9.19262 11.5169 2.34233
245 2 9.76123 13.0595 1.07164
246 2 9.48022 11.8173 17.0332
247 2 10.8401 8.09397 0.804065
248 2 9.95184 6.60174 0.909079
249 2 14.5265 7.92799 3.24924
250 2 13.6054 6.70777 3.19296
251 2 13.2836 6.71136 7.3163
252 2 13.0762 8.35354 6.48789
253 2 14.4213 11.7132 7.35788
254 2 13.1111 11.6243 8.42502
255 2 8.61672 9.61298 7.39587
256 2 8.90183 8.22463 8.0769
257 2 1.88371 1.37807 10.7685
258 2 0.485813 1.43721 11.6645
259 2 5.28758 4.68422 10.2194
260 2 5.34558 4.8156 8.56057
261 2 6.08171 6.33021 11.3671
262 2 5.61086 5.13135 12.4588
263 2 3.87805 4.53746 13.4659
264 2 5.11351 3.44615 13.6877
265 2 2.27604 1.10343 12.6926
266 2 1.96779 1.18007 14.4008
267 2 2.12302 4.85762 14.6161
268 2 2.30572 6.28872 13.655
269 2 4.136 1.38682 9.42524
270 2 4.90866 2.66155 9.4464
271 2 3.8956 1.6478 13.8347
272 2 5.45552 1.39197 14.6218
273 2 1.64249 4.50309 16.4482
274 2 1.31574 3.35164 15.6478
275 2 1.89301 4.51211 12.4587
276 2 1.43217 3.2956 11.6577
277 2 1.99537 4.79383 10.3873
278 2 3.52133 4.60337 9.69996
279 2 2.26389 1.23772 8.71436
280 2 2.62747 13.7076 9.26322
281 2 5.87084 1.10287 10.9097
282 2 5.87587 1.20109 12.6087
283 2 6.10922 13.6228 15.8131
284 2 5.45792 1.05768 16.7459
285 2 7.27326 4.80668 15.6586
286 2 5.89945 4.7304 14.8135
287 2 15.035 0.992232 15.7367
288 2 1.7187 1.20572 16.6519
289 2 7.49694 1.41649 11.7194
290 2 8.60135 2.59991 11.4672
291 2 12.7322 4.56888 8.57392
292 2 12.9272 4.63512 10.2398
293 2 14.5142 4.7556 11.4899
294 2 13.0158 4.73876 12.3881
295 2 12.8126 4.57891 14.3235
296 2 12.2835 3.12989 13.7757
297 2 9.66397 13.664 13.4432
298 2 9.33576 1.23249 12.7584
299 2 10.6895 4.56189 13.3858
300 2 9.42197 4.93331 12.4435
301 2 12.0432 2.6337 9.50514
302 2 11.3527 1.12794 9.84362
303 2 12.8888 1.14341 14.4913
304 2 11.2834 1.23047 13.7243
305 2 8.49871 3.14144 15.6292
306 2 9.08784 4.36956 14.6888
307 2 9.00435 4.80533 10.6509
308 2 7.5511 4.78246 11.4185
309 2 9.49766 4.89536 8.59459
310 2 10.8965 4.95389 9.16775
311 2 9.60012 1.18754 10.2862
312 2 9.5236 0.874091 8.8236
313 2 13.1467 1.21871 10.6464
314 2 13.1646 1.26615 12.3349
315 2 13.3652 1.09199 16.6447
316 2 13.4354 13.4802 15.9379
317 2 13.243 6.17125 15.5384
318 2 14.4352 5.0826 15.6987
319 2 7.63419 1.13952 15.8184
320 2 9.13004 1.09588 15.0374
321 2 1.53296 8.33751 10.8531
322 2 1.18444 9.68306 11.6649
323 2 5.4403 11.4337 10.3233
324 2 3.85906 11.324 9.7362
325 2 5.62671 11.7419 12.4285
326 2 6.16303 13.0045 11.8484
327 2 3.94705 11.4502 13.5259
328 2 4.91322 10.2905 13.7235
329 2 3.35832 8.07654 13.6655