ITEM: TIMESTEP
0
ITEM: NUMBER OF ATOMS
384
ITEM: BOX BOUNDS pp pp pp
-3.1180958401302572e-01 1.5311809584013066e+01
-3.1180958401302572e-01 1.5311809584013066e+01
-3.1180958401302572e-01 1.5311809584013066e+01
ITEM: ATOMS id type x y z
1 1 4.57679 5.50123 13.6944
2 1 14.8875 3.66367 14.1079
3 1 8.20115 10.8513 3.91518
4 1 1.55859 4.11103 4.68534
5 1 14.0046 11.0534 10.4291
6 1 10.1562 -0.0244194 -0.0179537
7 1 13.1461 9.78511 5.92123
8 1 3.48566 13.6848 7.87681
9 1 3.32305 6.30373 3.20589
10 1 5.30735 8.37688 2.36991
11 1 13.7801 6.32188 1.70807
12 1 0.692367 10.1945 14.1186
13 1 15.0627 5.43363 4.6639
14 1 9.98456 5.97612 7.92121
15 1 12.4056 7.19481 3.96576
16 1 9.83562 2.64919 6.79506
17 1 4.60459 4.17249 11.4106
18 1 7.55062 10.3381 11.1669
19 1 8.27543 1.89543 14.4455
20 1 5.83253 14.0038 0.549654
21 1 -0.277952 13.5963 10.2649
22 1 12.6457 2.09652 6.28487
23 1 10.7129 7.40871 14.2399
24 1 2.2119 7.88472 6.40809
25 1 10.4542 9.69036 5.97773
26 1 -0.282536 8.22967 4.81222
27 1 1.6652 11.2607 4.20606
28 1 6.17365 -0.094545 10.725
29 1 12.1932 8.4542 0.381712
30 1 2.29814 6.67565 12.652
31 1 3.74006 5.65533 5.77839
32 1 7.64075 12.3667 7.75101
33 1 2.57949 3.81144 2.08856
34 1 3.31976 13.3432 0.0677147
35 1 -0.0967938 5.37115 7.46928
36 1 11.1426 14.5448 7.59235
37 1 1.26174 14.8074 2.57217
38 1 6.41618 0.335516 13.3898
39 1 0.207637 9.92258 2.18818
40 1 12.6731 13.1901 12.8323
41 1 1.29363 11.9761 7.9846
42 1 13.2286 14.8362 0.439531
43 1 -0.123887 15.1905 5.01064
44 1 8.80795 12.7708 12.0788
45 1 12.4172 6.75949 6.79319
46 1 9.49869 10.6014 8.40823
47 1 10.544 10.9934 13.3575
48 1 8.99001 12.8372 5.44675
49 1 4.04829 1.51716 14.6149
50 1 6.69928 13.1999 13.7041
51 1 4.43379 6.10378 9.26553
52 1 11.4216 -0.0969869 13.0672
53 1 8.10878 14.4288 3.40524
54 1 4.3962 2.37166 3.28729
55 1 12.1316 11.4523 8.45349
56 1 8.7458 10.8517 -0.213292
57 1 1.53862 1.7361 8.48855
58 1 8.69585 5.89847 11.616
59 1 1.22107 9.19196 8.49846
60 1 10.635 10.5731 3.14594
61 1 11.4957 4.51089 15.2148
62 1 10.9209 6.7156 10.446
63 1 4.94638 10.4223 10.3546
64 1 7.94749 8.55464 1.09697
65 1 14.5919 7.80968 8.4877
66 1 5.26248 14.7619 3.62401
67 1 5.62202 2.26942 6.97039
68 1 1.29568 -0.0251437 10.348
69 1 11.6689 12.7598 1.5126
70 1 8.10674 4.34492 9.29769
71 1 15.2574 12.5827 5.71394
72 1 5.13758 11.4238 7.95676
73 1 0.807368 7.59384 14.5622
74 1 1.07308 4.35508 11.6836
75 1 -0.103901 0.899318 12.6958
76 1 12.4336 12.7126 5.99741
77 1 6.5124 0.898083 1.44852
78 1 5.22926 7.74021 7.34722
79 1 4.69818 3.85809 0.25821
80 1 14.6318 1.53081 0.260033
81 1 8.7843 1.26425 2.88569
82 1 10.1715 2.86217 10.2074
83 1 1.97586 4.56417 8.94346
84 1 12.6683 15.2799 4.82665
85 1 10.1623 4.44247 4.67024
86 1 8.26116 6.29332 15.2182
87 1 2.75694 2.33071 12.3211
88 1 10.1168 15.0402 10.6766
89 1 0.0214213 11.8389 0.424274
90 1 9.92368 3.73613 12.9889
91 1 7.93039 3.8304 3.09944
92 1 3.45334 12.7245 2.72154
93 1 13.7442 3.34545 8.32257
94 1 1.06378 7.50528 1.70711
95 1 13.5608 9.51663 12.896
96 1 6.16563 2.34739 9.6158
97 1 6.00658 4.12469 4.96415
98 1 13.0409 2.11594 12.6389
99 1 9.44842 7.22402 5.61094
100 1 3.08802 8.31472 10.412
101 1 4.27645 12.564 12.0172
102 1 0.247817 12.7339 12.6695
103 1 6.92237 8.32243 4.80264
104 1 10.2096 9.4039 11.0142
105 1 8.10819 14.6608 9.11245
106 1 0.724807 14.5893 14.8093
107 1 7.38606 3.87893 0.612739
108 1 13.59 6.17467 11.3541
109 1 6.57455 9.82429 14.0409
110 1 6.72525 7.05567 13.1783
111 1 3.66994 10.3273 5.96103
112 1 1.66543 1.60839 5.77048
113 1 9.05834 13.0173 1.11863
114 1 4.11235 0.213829 6.02437
115 1 10.3679 8.11545 2.36753
116 1 3.8208 14.5044 10.4834
117 1 6.27696 11.8524 2.07137
118 1 3.1417 11.1769 14.1451
119 1 12.971 3.21476 1.56998
120 1 12.4061 13.5738 10.1924
121 1 14.0948 6.56232 13.8874
122 1 11.4172 0.689063 2.37021
123 1 1.65778 1.52802 1.12949
124 1 7.74882 0.714644 6.86752
125 1 13.0368 10.8806 0.0461404
126 1 14.1536 3.59273 10.8941
127 1 12.9937 3.74289 4.44237
128 1 4.93288 10.2326 0.481908
129 2 4.52916 4.87676 12.9369
130 2 4.69703 5.06241 14.547
131 2 14.6886 4.58995 14.3163
132 2 0.0945933 3.63697 13.6264
133 2 7.74221 10.0755 4.24889
134 2 8.99342 10.7228 3.34745
135 2 0.788771 4.72927 4.53377
136 2 1.81069 3.95163 3.77685
137 2 14.4008 11.9252 10.4575
138 2 13.9069 10.7269 11.3647
139 2 10.6725 0.201823 0.765773
140 2 9.47367 0.652849 -0.0632908
141 2 13.5922 9.97565 6.76473
142 2 13.2152 10.5455 5.32572
143 2 3.67781 14.0964 8.7488
144 2 3.53939 14.3835 7.27865
145 2 3.09567 5.45978 2.78243
146 2 3.60518 6.19337 4.09913
147 2 5.08995 9.05489 1.76222
148 2 4.54185 7.79795 2.5309
149 2 13.4381 6.67871 2.59019
150 2 14.7355 6.25337 1.79471
151 2 0.77524 9.18308 14.2443
152 2 0.388115 10.6288 14.9234
153 2 14.1894 4.91997 4.56536
154 2 14.9228 6.4107 4.60147
155 2 10.8762 5.93786 7.61697
156 2 9.58879 6.53361 7.20672
157 2 12.1014 7.06547 4.8105
158 2 11.5829 7.27566 3.48345
159 2 9.70669 3.06202 7.62541
160 2 9.96186 3.35305 6.0781
161 2 3.89127 3.51534 11.556
162 2 5.31618 3.63484 11.0911
163 2 8.36256 9.80951 10.99
164 2 7.91946 11.2623 11.3115
165 2 7.80256 2.56448 14.9346
166 2 7.58248 1.21916 14.1315
167 2 6.10462 13.5421 -0.242407
168 2 4.85977 13.825 0.528199
169 2 14.4101 13.8153 10.1623
170 2 -0.0704958 13.4422 11.1966
171 2 11.7088 2.1063 6.54679
172 2 12.6961 1.18401 5.89058
173 2 10.9921 7.5299 13.3514
174 2 11.2636 8.01166 14.7268
175 2 1.57728 7.89927 5.7134
176 2 1.87051 8.36741 7.16573
177 2 11.4302 9.71213 6.20698
178 2 10.3486 10.1292 5.1128
179 2 14.4149 8.445 5.04536
180 2 0.00164071 8.8165 4.03796
181 2 1.02838 11.8189 4.67407
182 2 2.36173 10.8675 4.79517
183 2 6.32838 0.734699 10.265
184 2 5.21972 -0.301306 10.6492
185 2 12.568 9.37229 0.310345
186 2 12.8634 7.95827 0.824663
187 2 2.56428 7.41349 12.0109
188 2 3.14156 6.4193 13.0935
189 2 3.16723 6.41343 5.9805
190 2 3.10221 4.98312 5.63197
191 2 7.73547 13.1577 8.33842
192 2 8.06104 12.6116 6.87934
193 2 1.75422 3.38105 1.7562
194 2 3.25148 3.1727 2.47226
195 2 3.15037 12.6412 14.9757
196 2 3.16776 12.9566 0.983888
197 2 0.0720948 5.37286 6.52711
198 2 -0.245356 6.34024 7.61737
199 2 11.6512 14.8569 8.35832
200 2 11.802 13.9131 7.23812
201 2 2.07792 14.3411 2.56175
202 2 1.50629 0.044002 2.08403
203 2 6.3968 14.9261 13.4491
204 2 6.20534 0.425411 12.4267
205 2 0.660795 9.1318 1.85703
206 2 0.694078 10.391 2.87312
207 2 12.3708 14.0972 13.0916
208 2 12.1841 12.5232 13.366
209 2 2.09163 12.5603 7.87369
210 2 0.901668 12.2269 8.80367
211 2 13.6981 0.109016 0.335681
212 2 13.4443 14.3386 15.279
213 2 14.5376 15.2076 4.93591
214 2 0.228484 14.9795 4.13145
215 2 9.24837 13.4527 11.622
216 2 9.52013 12.2417 12.5392
217 2 12.875 7.30125 7.44426
218 2 13.1287 6.09272 6.70831
219 2 8.70364 11.2231 8.31889
220 2 9.67729 10.2938 7.51515
221 2 10.4955 10.2933 12.7118
222 2 10.0325 10.7711 14.1408
223 2 9.87115 13.0955 5.5737
224 2 8.95145 12.0108 4.93614
225 2 4.74251 0.928236 14.2575
226 2 3.48888 1.81195 13.8977
227 2 7.56401 13.1017 13.1985
228 2 6.02622 12.6782 13.2435
229 2 3.65548 5.64787 8.88705
230 2 4.53028 5.65688 10.1121
231 2 10.7483 -0.0654962 13.7661
232 2 11.7812 0.808853 13.0779
233 2 8.36482 -0.291862 3.46612
234 2 8.34757 14.0066 4.25098
235 2 5.1094 1.81781 2.95108
236 2 4.6411 2.96006 4.03817
237 2 12.5339 11.0417 9.22128
238 2 11.1841 11.2095 8.49369
239 2 8.60742 10.312 0.576946
240 2 8.69537 11.7883 0.0583599
241 2 1.42282 1.68337 7.50469
242 2 1.60998 2.65673 8.73322
243 2 8.87953 5.11923 12.1645
244 2 8.03029 6.40716 12.1505
245 2 1.95332 8.95172 9.16853
246 2 1.28006 10.1574 8.3047
247 2 11.2632 11.2403 2.79611
248 2 10.7957 9.70539 2.72449
249 2 11.5653 5.40273 -0.288322
250 2 11.1896 4.32648 14.2564
251 2 10.4204 6.65681 9.62663
252 2 10.2607 6.46258 11.0571
253 2 5.87632 10.1769 10.5904
254 2 4.94364 10.8143 9.46912
255 2 7.91802 7.6928 0.604333
256 2 7.17835 8.74025 1.63464
257 2 14.2008 7.92642 9.35992
258 2 -0.267797 8.44072 8.55252
259 2 6.16366 14.3915 3.8125
260 2 4.75946 14.0077 3.26281
261 2 6.35085 1.60272 6.90857
262 2 4.84301 1.75402 6.76165
263 2 1.34137 0.662419 9.62968
264 2 0.817817 14.7755 10.0578
265 2 10.8342 13.0339 1.10914
266 2 12.2496 13.5788 1.43103
267 2 7.99168 4.93257 10.0429
268 2 8.59208 4.87508 8.55834
269 2 -0.0863874 13.5026 5.64494
270 2 0.00602987 12.1735 6.56287
271 2 6.0476 11.6847 7.84187
272 2 4.65027 12.2574 7.8746
273 2 -0.10786 7.21382 14.4417
274 2 1.40859 7.20909 13.8607
275 2 1.10879 5.19843 12.1297
276 2 0.142322 4.18446 11.4107
277 2 0.192301 0.569522 11.8253
278 2 0.262058 0.216297 13.3227
279 2 13.325 12.966 5.76917
280 2 12.474 12.1815 6.79075
281 2 6.96454 1.33987 0.72514
282 2 6.22808 -0.0168944 1.14781
283 2 5.28424 6.95392 7.95734
284 2 5.69738 8.44349 7.79401
285 2 4.59695 2.96295 -0.156096
286 2 4.05776 3.8329 1.0606
287 2 14.2623 2.20361 0.861912
288 2 14.7961 2.02476 15.1013
289 2 7.90736 0.984376 2.41964
290 2 8.42535 2.08554 3.23522
291 2 9.33834 3.30929 9.83257
292 2 10.1754 1.88055 10.1119
293 2 1.75381 4.52695 9.90946
294 2 1.11552 4.78978 8.54253
295 2 12.2645 0.0873025 4.07993
296 2 12.0334 14.6435 5.15054
297 2 9.97133 5.30379 5.02216
298 2 9.51596 4.30903 3.95105
299 2 9.11176 6.41377 14.7882
300 2 7.57568 6.54 14.599
301 2 2.07189 2.92609 11.9449
302 2 2.69894 1.52435 11.845
303 2 10.8501 14.3815 10.4642
304 2 10.5118 -0.206863 11.478
305 2 0.274248 12.7719 0.61942
306 2 0.108425 11.2293 1.22179
307 2 9.70727 2.84376 13.3266
308 2 10.3129 3.49932 12.1129
309 2 7.16744 3.93944 3.6373
310 2 7.68964 3.77425 2.12389
311 2 2.7812 12.2345 3.34142
312 2 4.17512 12.108 2.65722
313 2 13.4252 2.63657 7.76521
314 2 14.4885 3.85196 7.85505
315 2 1.16553 7.50623 0.684607
316 2 1.80702 6.9489 2.01705
317 2 14.4305 9.58843 13.243
318 2 13.0187 10.0336 13.4694
319 2 5.70123 2.57075 8.68482
320 2 6.80813 3.05178 9.52933
321 2 5.35787 4.80808 5.12533
322 2 5.96938 3.53575 5.71789
323 2 13.0854 2.74416 13.3668
324 2 13.871 1.59988 12.7008
325 2 8.54415 7.16809 5.28465
326 2 9.76316 8.11779 5.62097
327 2 3.5805 7.58031 10.0651
328 2 3.76188 9.05652 10.3377
329 2 4.55808 11.8882 11.3243
330 2 3.56374 12.075 12.5347
331 2 0.334551 11.7965 12.6005
332 2 0.24849 12.8839 13.5924
333 2 6.35726 8.22802 5.65351
334 2 6.38531 8.12785 4.02112
335 2 10.214 9.5859 10.0692
336 2 10.6644 8.57403 11.1276
337 2 8.95214 14.8857 9.64428
338 2 7.3584 14.7538 9.70982
339 2 0.591563 15.0693 0.0182509
340 2 1.70203 14.3696 14.7724
341 2 6.4741 3.89198 0.306924
342 2 7.8908 4.74294 0.474307
343 2 13.7745 5.25403 11.174
344 2 12.6407 6.3597 11.1641
345 2 6.61181 10.3071 13.1711
346 2 7.38294 10.2018 14.4287
347 2 5.92965 6.53312 13.3142
348 2 6.65131 8.00804 13.4902
349 2 4.1508 10.9057 6.58172
350 2 3.72612 9.43762 6.27968
351 2 0.960879 1.05271 5.33877
352 2 1.48012 2.49213 5.40543
353 2 8.71011 13.4532 1.93204
354 2 8.99593 13.78 0.520382
355 2 3.28533 0.709593 5.89467
356 2 4.52263 -0.105961 5.1872
357 2 10.8957 8.12501 1.5533
358 2 9.392 8.09909 2.00114
359 2 2.85608 14.8006 10.6062
360 2 3.90293 13.7417 11.0449
361 2 6.48734 12.6937 1.54518
362 2 7.04029 11.6822 2.67807
363 2 2.24681 10.7375 14.3261
364 2 3.668 10.6767 14.8241
365 2 12.3482 3.69431 0.972113
366 2 13.2921 3.83378 2.19605
367 2 12.5073 12.8061 9.60602
368 2 12.5354 13.311 11.1419
369 2 13.9506 6.55755 12.8999
370 2 13.4462 7.1125 14.3857
371 2 11.8334 1.45816 2.05064
372 2 10.4376 0.894116 2.52875
373 2 0.844146 1.54638 0.605455
374 2 2.39804 1.38307 0.478242
375 2 7.77884 0.12269 7.66547
376 2 8.60235 1.23456 6.91956
377 2 12.4122 11.5105 0.551261
378 2 13.9301 11.2794 0.187093
379 2 13.8259 3.47873 9.96028
380 2 13.5184 3.1733 11.5056
381 2 12.9666 3.11167 5.2382
382 2 12.0906 4.05916 4.29522
383 2 5.48443 10.7696 1.07083
384 2 5.47524 10.05 -0.286949
ITEM: TIMESTEP
200
ITEM: NUMBER OF ATOMS
384
ITEM: BOX BOUNDS pp pp pp
-2.1868351273538700e-01 1.5218683512735430e+01
-2.1868351273538700e-01 1.5218683512735430e+01
-2.1868351273538700e-01 1.5218683512735430e+01
ITEM: ATOMS id type x y z
1 1 4.49985 5.5414 13.0844
2 1 14.5078 3.88179 13.8965
3 1 7.54459 10.6683 3.81069
4 1 1.7128 3.75221 4.55611
5 1 13.6623 10.2041 10.2998
6 1 9.99617 0.209446 -0.0669376
7 1 13.3298 9.60818 6.03778
8 1 3.37275 13.5855 7.55697
9 1 3.14956 6.4781 2.83138
10 1 5.52166 7.91233 2.62001
11 1 13.7585 6.54032 1.87991
12 1 0.536965 10.0425 13.7802
13 1 14.9486 5.40243 4.87504
14 1 9.90763 5.94345 7.88428
15 1 12.2134 6.98449 4.04727
16 1 9.90166 2.73921 6.7679
17 1 4.69607 3.92333 11.2006
18 1 7.30414 10.4093 11.2276
19 1 8.34727 1.92885 14.3828
20 1 5.81747 13.9034 0.559181
21 1 -0.120447 13.3114 10.0287
22 1 12.5873 1.87867 6.23324
23 1 10.6736 7.11013 14.1977
24 1 1.99173 7.86094 6.35827
25 1 10.4147 9.24731 5.80742
26 1 15.0703 8.15792 4.69816
27 1 1.81117 11.4435 4.39673
28 1 5.90342 0.33349 10.5638
29 1 12.2551 8.0265 0.30382
30 1 2.14186 6.54473 12.3067
31 1 3.56516 5.74189 5.3196
32 1 7.67971 11.9369 7.77743
33 1 3.20339 3.5493 2.16887
34 1 3.00909 13.2407 0.150781
35 1 -0.0248965 5.31626 7.61609
36 1 10.6994 14.4975 7.32232
37 1 1.18803 14.5369 2.24076
38 1 6.08706 0.431425 13.3237
39 1 0.466719 9.84935 2.799
40 1 12.2292 13.0934 12.6012
41 1 0.926516 12.2589 7.99384
42 1 13.5286 14.2618 0.214754
43 1 -0.115609 14.9699 4.50995
44 1 8.50102 12.7624 11.7841
45 1 12.5109 6.35087 6.83252
46 1 9.66303 10.3247 8.21192
47 1 10.3933 11.0185 12.8182
48 1 8.80756 12.3962 5.43676
49 1 3.94947 1.6811 14.2345
50 1 6.48128 13.2315 13.4458
51 1 4.12418 5.89184 9.31433
52 1 11.1763 -0.0216873 13.1066
53 1 7.56404 14.2126 3.51278
54 1 4.70258 2.05115 3.55719
55 1 12.1888 11.2411 8.3149
56 1 8.87517 10.5123 -0.140709
57 1 1.73343 1.70354 8.35085
58 1 8.46997 5.56951 11.5508
59 1 1.22874 9.12991 8.55543
60 1 10.4388 10.3779 3.36007
61 1 11.5765 4.42834 14.8651
62 1 10.4855 6.88987 10.4814
63 1 4.92576 10.1965 10.1117
64 1 7.94508 8.05085 1.39221
65 1 14.3689 7.52394 8.6606
66 1 4.87516 14.7064 3.69617
67 1 5.68807 1.93146 6.83295
68 1 1.33487 0.446166 10.3971
69 1 11.4761 12.5141 1.68814
70 1 8.30017 4.2556 9.29786
71 1 15.1811 12.61 5.67465
72 1 4.93339 11.3168 7.55154
73 1 0.917232 7.43462 14.3637
74 1 1.0574 4.24793 11.7873
75 1 -0.0554743 0.585067 12.7951
76 1 12.3971 12.5055 5.9827
77 1 6.24574 1.06492 1.3791
78 1 5.58573 8.00208 7.0052
79 1 4.63359 4.02923 -0.192662
80 1 14.5798 1.70047 0.2738
81 1 8.51812 1.29856 2.67817
82 1 10.1354 2.61881 10.2345
83 1 1.8779 4.36353 8.89439
84 1 12.6698 15.0419 4.27083
85 1 10.2723 4.79374 4.91534
86 1 8.31533 6.29243 14.9275
87 1 2.73581 2.22044 12.0349
88 1 9.97205 14.6977 10.7694
89 1 -0.196343 11.2524 0.704237
90 1 9.65814 3.58331 12.7622
91 1 7.91817 3.9135 3.52133
92 1 3.37683 12.7094 2.72101
93 1 13.5082 3.5426 8.14068
94 1 0.803548 7.52422 1.73835
95 1 13.4259 10.0087 12.8415
96 1 6.18121 2.72753 9.29875
97 1 5.86991 3.88382 5.12758
98 1 12.9728 1.84062 12.753
99 1 8.98007 7.04902 5.45298
100 1 3.11539 8.21902 10.2827
101 1 4.3526 12.3163 11.9815
102 1 0.546814 12.7178 12.4265
103 1 6.81235 8.46585 4.7192
104 1 9.74958 9.50159 10.7127
105 1 7.84885 14.5423 8.97069
106 1 0.735438 14.3934 14.5456
107 1 7.43502 3.9637 0.354453
108 1 13.4382 6.59038 10.8845
109 1 6.71836 9.58995 13.6787
110 1 6.69218 6.92222 13.0853
111 1 3.54258 9.79728 5.59614
112 1 1.51572 1.18316 5.66415
113 1 9.10925 13.2343 1.05753
114 1 3.92546 0.17291 6.13946
115 1 10.451 8.06847 2.26591
116 1 3.74024 14.1997 10.3577
117 1 5.71672 11.58 2.20634
118 1 3.21057 11.0176 14.1743
119 1 12.3658 2.90903 1.57201
120 1 12.5263 13.693 10.0641
121 1 13.9267 6.5283 13.6398
122 1 11.1675 0.910118 2.48088
123 1 1.78273 1.37092 1.04979
124 1 8.02284 0.696246 6.65475
125 1 12.7021 10.6622 15.2106
126 1 13.9562 3.83101 10.7678
127 1 12.5351 4.17875 4.0444
128 1 4.89234 9.70485 0.431862
129 2 4.81739 4.77751 12.2984
130 2 4.4981 5.13578 14.1565
131 2 14.2303 4.89817 13.8996
132 2 -0.0557454 3.89065 13.3274
133 2 7.04453 9.91608 4.12518
134 2 8.42891 10.4773 3.57338
135 2 0.899628 4.24431 4.33931
136 2 2.11602 3.66987 3.70077
137 2 14.3263 10.732 10.0369
138 2 13.4145 10.1595 11.3177
139 2 10.5945 0.719619 0.500989
140 2 9.2809 0.906863 15.0322
141 2 13.4876 9.49674 6.95297
142 2 13.0107 10.4666 5.77979
143 2 3.46587 13.9804 8.3656
144 2 3.38716 14.2587 6.77807
145 2 3.25556 5.76737 2.23247
146 2 3.32651 6.11383 3.90296
147 2 5.45854 8.36575 1.79909
148 2 4.9188 7.2547 2.62848
149 2 13.2284 6.68828 2.67105
150 2 14.5601 7.08924 2.02479
151 2 0.898249 9.13196 13.8471
152 2 0.540138 10.3634 14.7437
153 2 13.96 5.03024 4.54729
154 2 14.9167 6.40001 4.64609
155 2 10.7547 6.0884 7.42781
156 2 9.21771 6.46777 7.50629
157 2 12.6941 7.10846 4.93202
158 2 11.6125 7.77346 3.57905
159 2 9.56376 3.0225 7.55709
160 2 9.96953 3.55032 6.25595
161 2 4.06635 3.17013 11.499
162 2 5.42552 3.40381 10.7034
163 2 8.26347 9.90319 11.0676
164 2 7.81198 11.2906 11.2125
165 2 8.0305 2.75625 14.8136
166 2 7.45617 1.61718 13.9356
167 2 6.1024 13.6788 15.0387
168 2 4.89019 13.7612 0.265886
169 2 14.4892 13.731 9.75771
170 2 0.283981 13.2061 10.9515
171 2 11.5453 1.99816 6.33987
172 2 12.5595 1.06337 5.67145
173 2 10.7725 7.54886 13.3061
174 2 11.1595 7.63424 14.8177
175 2 1.04279 7.75104 5.58679
176 2 1.47876 8.30958 6.99992
177 2 11.4206 9.25754 5.92404
178 2 10.6005 9.78214 5.12569
179 2 14.6116 8.75082 5.3277
180 2 0.175842 8.58433 4.01613
181 2 0.894782 11.7942 4.99175
182 2 2.61841 10.8205 4.9554
183 2 6.0531 1.08706 9.91318
184 2 5.08759 -0.0142867 10.4567
185 2 12.4668 8.88043 0.000288032
186 2 13.0186 7.42488 0.880421
187 2 2.22153 7.25427 11.6082
188 2 3.13729 6.25686 12.4112
189 2 2.96376 6.38823 5.67007
190 2 2.95381 5.11155 5.07846
191 2 7.66797 12.8918 8.42708
192 2 7.78232 12.2867 7.06107
193 2 2.63802 2.94363 1.6366
194 2 3.75881 3.05388 2.87444
195 2 2.99088 12.4316 15.0746
196 2 2.85506 13.0779 1.19773
197 2 15.1847 5.34434 6.60717
198 2 15.0515 6.19791 7.83394
199 2 11.4103 15.2 7.54806
200 2 11.0834 13.9197 6.83295
201 2 2.00073 14.0788 2.50067
202 2 1.26438 0.00296681 1.91999
203 2 6.27556 14.7332 13.4452
204 2 5.87786 0.241197 12.4153
205 2 0.879261 9.36804 2.13478
206 2 0.989415 10.4856 3.40542
207 2 11.7105 13.8937 12.7349
208 2 11.6571 12.2679 12.7337
209 2 1.66017 12.9262 7.84229
210 2 0.449984 12.6792 8.78021
211 2 13.3189 -0.189566 0.329212
212 2 13.3646 13.9112 14.6711
213 2 14.2751 -0.0861948 4.37649
214 2 0.387351 14.5988 3.59311
215 2 8.99553 13.4128 11.3969
216 2 9.33665 12.3947 12.2615
217 2 13.0671 6.8083 7.51701
218 2 12.6606 5.42578 6.8232
219 2 8.84507 10.938 8.22797
220 2 9.81545 10.0033 7.33648
221 2 10.3768 10.4496 12.123
222 2 9.88309 10.615 13.6222
223 2 9.72382 12.1574 5.43537
224 2 8.38572 11.6122 4.79229
225 2 4.73245 1.04554 13.9254
226 2 3.45198 1.82894 13.4502
227 2 7.36366 12.9802 13.1637
228 2 5.64309 12.8696 13.0414
229 2 3.21737 5.319 9.25495
230 2 4.73971 5.62586 9.97536
231 2 10.7378 0.187298 14.1029
232 2 11.8338 0.663039 13.056
233 2 8.0484 15.0658 3.44709
234 2 8.18143 13.6794 4.18851
235 2 5.23018 1.56223 2.87924
236 2 5.29929 2.69774 3.96262
237 2 12.6442 10.7645 9.0498
238 2 11.387 10.8906 8.15267
239 2 8.53452 9.85298 0.489707
240 2 8.93466 11.3092 0.317767
241 2 1.48317 1.46172 7.33157
242 2 1.72092 2.66564 8.41588
243 2 8.86723 4.87106 12.073
244 2 7.84552 6.07922 12.1495
245 2 1.62934 8.73248 9.42296
246 2 1.22764 10.1012 8.69268
247 2 10.9142 11.2303 2.92987
248 2 10.661 9.62285 2.93317
249 2 10.9807 5.14693 14.96
250 2 11.2339 3.91079 13.9903
251 2 10.586 6.31381 9.61042
252 2 9.59488 6.46467 11.0471
253 2 5.8351 9.98938 10.3365
254 2 5.15497 10.6786 9.35587
255 2 8.09807 7.37575 0.720344
256 2 7.28257 7.83934 1.90443
257 2 13.866 7.30102 9.64237
258 2 14.8944 8.09334 8.97347
259 2 5.70442 14.7625 3.94711
260 2 4.34938 13.9289 3.33208
261 2 6.59434 1.44334 6.7635
262 2 5.10095 1.26081 6.94505
263 2 1.31749 0.794888 9.35853
264 2 0.991896 14.943 10.074
265 2 10.7206 13.0255 1.29276
266 2 12.3366 12.9954 1.76106
267 2 8.00763 4.78171 10.2245
268 2 8.81463 4.94382 8.63643
269 2 -0.0937243 13.5145 5.30339
270 2 0.262005 12.3302 6.57292
271 2 6.00062 11.4775 7.53108
272 2 4.23662 12.0451 7.65933
273 2 0.105533 7.01068 14.2042
274 2 1.55587 7.19163 13.6022
275 2 1.2016 5.19153 11.778
276 2 0.124234 4.19857 11.3495
277 2 0.364042 0.85571 11.9095
278 2 0.642559 0.41193 13.4107
279 2 13.382 12.5596 5.89403
280 2 12.398 12.0908 6.95402
281 2 6.32167 1.552 0.710311
282 2 5.95083 0.0982409 1.25761
283 2 5.04997 7.21825 7.1013
284 2 5.04712 8.70068 7.34355
285 2 4.41791 3.04646 14.6744
286 2 4.34533 3.89557 0.787689
287 2 13.8376 2.05606 0.589283
288 2 14.8332 2.38059 15.0371
289 2 7.77922 1.08641 2.18665
290 2 8.28547 2.17108 3.03776
291 2 9.40975 3.19726 9.74955
292 2 10.3924 1.59442 10.2393
293 2 1.41338 4.35753 9.75743
294 2 1.14971 4.78329 8.31303
295 2 12.1027 -0.100788 3.42009
296 2 12.4148 14.1277 4.77432
297 2 10.0428 5.66984 5.02794
298 2 9.58409 4.38807 4.23376
299 2 9.02257 6.8262 14.3739
300 2 7.57368 6.30137 14.2305
301 2 1.92801 2.8441 12.1032
302 2 2.40436 1.58994 11.3646
303 2 10.9101 14.4304 10.383
304 2 10.2503 15.2031 11.4663
305 2 15.161 12.2315 0.955868
306 2 -0.14302 10.7775 1.65346
307 2 9.33425 2.63698 13.0314
308 2 10.2474 3.51097 11.9363
309 2 7.15568 3.82701 4.14246
310 2 7.65525 4.15587 2.56322
311 2 2.89493 12.3698 3.46178
312 2 4.17191 12.1198 2.72829
313 2 13.3917 2.74132 7.60011
314 2 14.2733 4.03756 7.84456
315 2 0.671233 7.37424 0.765384
316 2 1.63943 7.1399 2.13178
317 2 14.4878 10.1423 12.891
318 2 12.8891 10.4911 13.5345
319 2 5.94582 2.291 8.39447
320 2 7.11892 3.18062 9.19416
321 2 5.08997 4.52382 5.10963
322 2 5.58094 3.04021 5.73106
323 2 13.2651 2.42555 13.5296
324 2 13.9607 1.41181 12.7454
325 2 8.18212 7.13064 5.09598
326 2 9.35024 7.94113 5.62632
327 2 3.47795 7.24103 9.91961
328 2 3.89939 8.76953 10.1457
329 2 4.53671 11.5121 11.3472
330 2 4.05156 11.8143 12.8039
331 2 0.178917 11.6885 12.8333
332 2 0.201753 13.3518 13.1066
333 2 6.06263 8.49314 5.60328
334 2 6.21045 8.1707 4.02281
335 2 9.74885 9.77699 9.73336
336 2 10.0916 8.44603 10.6103
337 2 8.62247 14.8244 9.39594
338 2 7.29729 14.808 9.69955
339 2 0.0714906 14.3202 -0.218086
340 2 1.76213 14.129 15.1425
341 2 6.45759 4.23298 0.263016
342 2 7.79879 4.82195 0.179042
343 2 13.5586 5.44318 10.7711
344 2 12.476 6.80339 10.7764
345 2 6.62779 9.7256 12.6509
346 2 7.47902 9.8577 14.2258
347 2 5.91357 6.50482 13.0966
348 2 6.67816 7.86812 13.5883
349 2 4.01191 10.1762 6.35538
350 2 3.17691 8.93467 5.87617
351 2 1.08038 0.572177 5.06073
352 2 1.52309 2.02403 5.3401
353 2 8.73015 13.5739 1.9973
354 2 9.52103 14.0486 0.590877
355 2 3.10898 0.763842 5.97647
356 2 4.24608 -0.154074 5.19099
357 2 11.1593 8.01986 1.52497
358 2 9.55698 8.09758 1.9281
359 2 2.96035 14.6891 10.3782
360 2 3.67891 13.588 11.1287
361 2 5.94577 12.6054 1.75187
362 2 6.36996 11.2948 2.84663
363 2 2.28481 10.6266 13.94
364 2 3.89712 10.566 14.699
365 2 11.9639 3.40152 0.616534
366 2 12.6012 3.52469 2.28016
367 2 12.3299 12.9495 9.53086
368 2 12.5003 13.3617 10.975
369 2 13.9237 6.8176 12.5849
370 2 13.1805 6.742 14.1067
371 2 11.6529 1.60288 2.14539
372 2 10.2956 1.21809 2.66782
373 2 0.966463 1.59824 0.74798
374 2 2.42358 1.11981 0.231455
375 2 8.06718 -0.178036 7.30286
376 2 8.83947 1.17567 6.79506
377 2 11.9854 11.1414 0.499929
378 2 13.6859 10.8726 0.198124
379 2 13.9226 3.6162 9.7421
380 2 13.6459 3.01672 11.2182
381 2 12.4601 3.30599 4.49683
382 2 11.7834 4.53326 4.34226
383 2 5.22545 10.346 1.01166
384 2 5.45122 9.65831 15.0597
ITEM: TIMESTEP
400
ITEM: NUMBER OF ATOMS
384
ITEM: BOX BOUNDS pp pp pp
-1.3021218416963443e-01 1.5130212184169675e+01
-1.3021218416963443e-01 1.5130212184169675e+01
-1.3021218416963443e-01 1.5130212184169675e+01
ITEM: ATOMS id type x y z
1 1 4.54757 5.42449 12.6877
2 1 14.6044 3.87886 14.0964
3 1 7.25917 10.8197 3.44098
4 1 1.79218 3.5985 4.4317
5 1 13.5947 9.65312 9.8983
6 1 9.37156 -0.0141708 15.0188
7 1 13.3473 9.75984 6.39552
8 1 3.4301 13.0112 7.94246
9 1 3.39901 6.03211 2.5399
10 1 5.55985 7.479 2.12088
11 1 13.8234 6.68765 2.00649
12 1 0.648285 10.0155 13.9457
13 1 -0.098677 5.30035 4.86077
14 1 9.65574 6.4196 8.06121
15 1 12.278 6.75544 4.49413
16 1 10.2597 2.64074 6.70309
17 1 4.68958 3.80542 10.5936
18 1 6.84738 10.5084 11.1746
19 1 7.97437 2.02522 14.4363
20 1 5.80571 13.5357 0.512211
21 1 15.1212 13.405 10.0156
22 1 12.3108 1.89779 5.6619
23 1 10.7548 6.40241 13.4953
24 1 1.99881 7.9475 6.4354
25 1 10.7103 9.10262 5.72696
26 1 15.0112 7.89112 4.78049
27 1 1.63877 11.2405 4.47347
28 1 5.95936 0.518108 10.473
29 1 12.2874 7.84659 -0.0108972
30 1 2.01162 6.46567 12.0503
31 1 3.31738 5.65739 5.25413
32 1 7.52061 11.9198 7.78243
33 1 3.18608 3.40077 1.8734
34 1 3.2843 12.9094 -0.0509779
35 1 -0.00730475 4.94116 7.47175
36 1 10.5453 14.6945 7.30092
37 1 1.01386 14.2624 1.76592
38 1 5.86506 0.908989 13.1224
39 1 0.394772 9.74561 2.9052
40 1 12.3075 12.9601 12.3568
41 1 1.09058 11.9498 8.18299
42 1 13.4848 13.9224 15.1114
43 1 15.0987 14.8683 4.16726
44 1 8.31656 12.7711 11.8738
45 1 12.0249 5.92873 7.14068
46 1 9.71864 10.3329 7.92975
47 1 10.0736 10.9556 12.859
48 1 8.56651 12.3356 5.31381
49 1 3.67489 1.67235 13.9639
50 1 6.09834 13.4156 13.2163
51 1 4.16115 6.09554 8.69912
52 1 11.0936 0.0925771 12.8837
53 1 7.37759 14.0201 3.55462
54 1 4.58765 2.1799 3.76078
55 1 12.1367 11.3167 8.53523
56 1 8.84953 10.1695 -0.0057757
57 1 2.03201 1.44102 8.23618
58 1 8.52948 5.24873 11.6071
59 1 0.709225 9.43374 8.77248
60 1 10.1538 10.6136 3.62205
61 1 11.59 3.87549 14.3898
62 1 10.1501 7.03047 10.5077
63 1 4.67691 10.0765 9.70373
64 1 8.19147 8.06858 1.51107
65 1 13.9476 7.26931 8.10622
66 1 4.87893 14.727 3.75526
67 1 5.75855 1.7264 6.45646
68 1 1.41937 0.106959 10.2809
69 1 11.2441 12.629 1.89482
70 1 8.75729 3.93568 9.26537
71 1 15.0787 12.6013 5.62526
72 1 4.97331 11.0603 7.26119
73 1 0.76894 7.58341 14.1835
74 1 0.540995 4.19024 11.5341
75 1 15.0524 0.68695 12.6366
76 1 12.3378 12.6744 6.00331
77 1 6.32065 1.07002 1.11755
78 1 5.54799 8.03384 7.50582
79 1 4.74334 3.97593 14.984
80 1 14.5505 1.71795 0.563359
81 1 8.24799 1.19143 3.02144
82 1 10.322 2.02299 10.5696
83 1 1.96094 4.18769 8.88763
84 1 12.3444 14.8794 4.35564
85 1 9.74126 4.4983 4.93261
86 1 8.28816 6.08151 14.8026
87 1 2.6319 2.20591 11.5609
88 1 10.1698 14.5854 10.6161
89 1 14.7845 11.32 0.994007
90 1 9.61195 3.18215 12.6632
91 1 7.61937 3.75574 3.52905
92 1 3.12554 12.6737 2.73682
93 1 13.1047 3.69666 7.93507
94 1 1.28239 7.70487 1.64669
95 1 13.2558 9.84846 12.6074
96 1 6.48193 2.87138 8.94293
97 1 6.08894 4.40632 5.54654
98 1 12.8415 2.14892 12.5156
99 1 8.72301 7.20635 5.77659
100 1 2.82742 8.12655 9.9427
101 1 4.29821 12.142 11.7799
102 1 0.970138 12.2179 12.1567
103 1 6.5058 8.38002 4.64184
104 1 9.26333 9.50562 10.6107
105 1 7.60711 14.4501 8.7036
106 1 1.04348 13.9647 14.02
107 1 7.0887 3.92489 1.01672
108 1 12.5542 6.55599 11.0535
109 1 7.00287 9.42583 13.5962
110 1 6.75127 6.9615 12.7986
111 1 3.81025 9.64092 5.07424
112 1 1.44653 1.08918 5.71899
113 1 8.80289 12.9619 1.18566
114 1 3.62981 14.9931 6.2311
115 1 10.6836 8.14642 2.63813
116 1 3.86054 14.1744 10.1316
117 1 5.16319 11.3256 1.75575
118 1 3.23532 10.8235 13.9663
119 1 12.2005 2.91567 1.67251
120 1 12.3648 13.4678 9.75942
121 1 13.7321 6.65947 13.3535
122 1 10.7846 0.758768 2.37326
123 1 1.79839 1.51742 0.878116
124 1 8.2049 0.707864 5.99178
125 1 12.3069 10.4622 0.146673
126 1 13.2721 4.00315 10.5886
127 1 12.9148 3.99665 4.29665
128 1 4.67236 9.47055 0.166369
129 2 4.61266 4.83765 11.7284
130 2 4.47556 4.90312 13.5099
131 2 14.1993 4.73199 14.2673
132 2 -0.0354702 4.05205 13.3207
133 2 7.00303 9.89443 3.89807
134 2 8.29344 10.8197 3.09775
135 2 1.04246 4.31354 4.23612
136 2 2.25385 3.4701 3.64527
137 2 14.5807 9.39434 9.68343
138 2 13.3554 9.53007 10.8647
139 2 9.68345 0.280313 0.519985
140 2 8.70341 0.745918 14.8166
141 2 13.0882 9.86164 7.34472
142 2 13.453 10.6041 6.05732
143 2 3.68634 13.4085 8.88373
144 2 3.45054 13.7717 7.26568
145 2 3.37515 4.92917 2.37842
146 2 3.20863 6.33606 3.49898
147 2 5.07022 8.25412 1.6705
148 2 4.85827 7.00821 2.22292
149 2 13.4596 6.61789 2.80136
150 2 14.8631 6.84088 1.99341
151 2 0.679929 8.98085 14.1013
152 2 0.249389 10.4507 14.7052
153 2 14.3748 4.5432 4.60573
154 2 14.9972 6.32515 4.567
155 2 10.3562 6.01765 7.6364
156 2 9.19883 6.65599 7.38889
157 2 12.1877 6.77674 5.42787
158 2 11.6946 7.30723 4.22374
159 2 9.78555 3.00942 7.53225
160 2 10.0189 3.48496 6.06124
161 2 3.98425 3.28605 10.7214
162 2 5.43938 3.33094 9.83469
163 2 7.64091 9.98707 10.7467
164 2 7.13929 11.4109 10.9435
165 2 7.80119 2.66393 15.008
166 2 7.25004 1.62628 14.0098
167 2 6.06278 13.2223 14.8238
168 2 4.8593 13.6228 0.169552
169 2 14.1492 13.2935 9.86012
170 2 0.0615424 13.049 10.9687
171 2 11.5469 2.11999 6.10272
172 2 12.4491 0.959514 5.23844
173 2 11.2736 6.30169 12.6885
174 2 11.1072 6.97524 14.2111
175 2 1.24397 8.20086 5.8251
176 2 1.59976 8.38902 7.29876
177 2 11.8279 9.29692 5.97041
178 2 10.5642 9.67517 4.9976
179 2 14.1291 8.38753 5.14452
180 2 -0.064289 8.55848 4.02511
181 2 1.08425 11.8103 5.127
182 2 2.24722 10.5988 4.92305
183 2 6.08332 1.31861 9.95916
184 2 5.19037 -0.00206581 10.0628
185 2 12.1627 8.81914 0.131272
186 2 12.6717 7.42143 0.801875
187 2 2.17935 7.22252 11.4561
188 2 2.87187 5.85061 12.2532
189 2 3.00069 6.37741 5.94535
190 2 2.68041 5.02134 5.28237
191 2 7.3132 12.7982 8.27173
192 2 7.90129 12.2386 6.90753
193 2 2.59637 2.63023 1.62291
194 2 3.88991 2.75882 2.20962
195 2 3.35597 11.9674 14.7482
196 2 3.16527 12.6366 0.945247
197 2 -0.127397 4.97234 6.43055
198 2 14.9375 5.8513 7.81401
199 2 10.9134 14.9914 8.06704
200 2 11.2515 14.1765 6.79994
201 2 1.6289 13.7979 2.30286
202 2 1.34854 -0.0861494 1.70032
203 2 6.17392 -0.0342114 13.3247
204 2 5.97679 0.889068 12.2667
205 2 0.975229 9.05482 2.25387
206 2 0.884202 10.3818 3.30325
207 2 11.8503 13.7315 12.7246
208 2 11.8773 12.1778 12.7815
209 2 1.99342 12.2647 8.09108
210 2 0.70101 12.5968 8.82511
211 2 13.5123 14.901 14.7847
212 2 13.4481 13.6265 14.2573
213 2 14.2023 14.9099 3.92728
214 2 0.334216 14.5215 3.20875
215 2 8.76198 13.1795 11.1814
216 2 8.97789 12.2533 12.2218
217 2 12.6085 6.57748 7.80445