ITEM: TIMESTEP
0
ITEM: NUMBER OF ATOMS
384
ITEM: BOX BOUNDS pp pp pp
0.0000000000000000e+00 1.5645677530000000e+01
0.0000000000000000e+00 1.4707145290000000e+01
0.0000000000000000e+00 1.8073037029999998e+01
ITEM: ATOMS id type x y z
1 1 1.38 1.76 3.37
2 1 5.2 4.47 1.11
3 1 6.59 5.39 3.31
4 1 5.28 4.49 5.56
5 1 2.59 0.84 5.67
6 1 2.69 5.43 5.56
7 1 5.2 1.71 1.07
8 1 5.2 1.73 5.58
9 1 1.32 4.61 7.82
10 1 1.3 4.52 3.36
11 1 2.61 5.41 1.1
12 1 2.59 0.82 1.07
13 1 6.54 0.87 3.33
14 1 6.54 0.88 7.83
15 1 6.51 5.4 7.86
16 1 1.35 1.85 7.92
17 1 9.2 1.76 3.37
18 1 13.05 4.55 1.15
19 1 14.35 5.46 3.4
20 1 13.1 4.49 5.66
21 1 10.41 0.84 5.67
22 1 10.51 5.43 5.65
23 1 13.07 1.79 1.07
24 1 13.02 1.73 5.58
25 1 9.15 4.61 7.91
26 1 9.2 4.52 3.4
27 1 10.45 5.49 1.15
28 1 10.49 0.82 1.12
29 1 14.36 0.87 3.33
30 1 14.36 0.88 7.83
31 1 14.36 5.48 7.9
32 1 9.17 1.85 7.92
33 1 1.3 9.11 3.32
34 1 5.3 11.9 1.11
35 1 6.53 12.81 3.4
36 1 5.2 11.84 5.61
37 1 2.59 8.19 5.58
38 1 2.61 12.79 5.61
39 1 5.25 9.14 1.16
40 1 5.2 9.08 5.67
41 1 1.32 11.96 7.91
42 1 1.38 11.87 3.31
43 1 2.69 12.77 1.06
44 1 2.67 8.17 1.12
45 1 6.49 8.14 3.42
46 1 6.49 8.16 7.92
47 1 6.53 12.83 7.81
48 1 1.35 9.21 7.83
49 1 9.09 9.19 3.37
50 1 13.13 11.9 1.11
51 1 14.44 12.82 3.35
52 1 13.1 11.84 5.56
53 1 10.41 8.19 5.58
54 1 10.51 12.79 5.65
55 1 12.99 9.14 1.12
56 1 13.02 9.08 5.67
57 1 9.12 11.89 7.86
58 1 9.15 11.95 3.4
59 1 10.51 12.77 1.15
60 1 10.38 8.25 1.12
61 1 14.29 8.22 3.37
62 1 14.36 8.24 7.92
63 1 14.36 12.83 7.81
64 1 9.12 9.13 7.83
65 1 1.35 1.83 12.45
66 1 5.2 4.47 10.14
67 1 6.59 5.39 12.34
68 1 5.3 4.56 14.65
69 1 2.67 0.84 14.66
70 1 2.69 5.43 14.6
71 1 5.28 1.71 10.15
72 1 5.25 1.81 14.61
73 1 1.32 4.61 16.85
74 1 1.32 4.59 12.35
75 1 2.63 5.49 10.09
76 1 2.64 0.89 10.2
77 1 6.57 0.79 12.41
78 1 6.54 0.88 16.87
79 1 6.53 5.48 16.94
80 1 1.35 1.85 16.86
81 1 9.2 1.76 12.41
82 1 13.02 4.47 10.14
83 1 14.35 5.46 12.34
84 1 13.05 4.57 14.6
85 1 10.46 0.91 14.71
86 1 10.46 5.51 14.69
87 1 13.1 1.71 10.15
88 1 13.07 1.81 14.61
89 1 9.15 4.61 16.94
90 1 9.2 4.52 12.44
91 1 10.45 5.49 10.18
92 1 10.49 0.82 10.16
93 1 14.39 0.79 12.41
94 1 14.36 0.88 16.87
95 1 14.33 5.4 16.89
96 1 9.17 1.85 16.96
97 1 1.3 9.11 12.45
98 1 5.28 11.83 10.1
99 1 6.59 12.74 12.34
100 1 5.3 11.92 14.65
101 1 2.59 8.19 14.71
102 1 2.69 12.79 14.6
103 1 5.2 9.07 10.2
104 1 5.17 9.16 14.66
105 1 1.38 11.89 16.85
106 1 1.38 11.87 12.35
107 1 2.71 12.84 10.14
108 1 2.56 8.25 10.16
109 1 6.49 8.14 12.46
110 1 6.46 8.24 16.91
111 1 6.61 12.83 16.89
112 1 1.3 9.13 16.96
113 1 9.09 9.19 12.41
114 1 13.13 11.9 10.14
115 1 14.41 12.74 12.44
116 1 13.1 11.84 14.69
117 1 10.38 8.27 14.66
118 1 10.53 12.86 14.64
119 1 12.99 9.14 10.15
120 1 13.02 9.08 14.7
121 1 9.23 11.96 16.9
122 1 9.23 11.95 12.39
123 1 10.51 12.77 10.09
124 1 10.38 8.25 10.16
125 1 14.29 8.22 12.41
126 1 14.31 8.16 16.96
127 1 14.44 12.83 16.89
128 1 9.09 9.21 16.91
129 2 0.46 1.48 3.37
130 2 1.33 2.71 3.37
131 2 5.68 4.81 1.86
132 2 5.67 4.81 0.35
133 2 6.13 5.1 4.1
134 2 6.56 6.34 3.34
135 2 4.38 4.84 5.6
136 2 5.7 4.83 6.36
137 2 2.17 1.18 4.88
138 2 3.49 1.17 5.63
139 2 2.23 5.15 6.35
140 2 2.65 6.39 5.59
141 2 5.65 1.43 1.86
142 2 5.23 2.67 1.1
143 2 5.23 2.69 5.61
144 2 5.65 1.45 6.37
145 2 1.78 4.88 8.61
146 2 1.33 3.65 7.85
147 2 1.78 4.85 4.11
148 2 1.78 4.85 2.6
149 2 3.52 5.14 1.1
150 2 2.64 6.37 1.11
151 2 3.49 1.15 1.11
152 2 2.17 1.16 1.87
153 2 6.09 1.14 4.12
154 2 6.53 14.6171 3.37
155 2 6.09 1.15 8.63
156 2 6.53 14.6371 7.86
157 2 7.43 5.14 7.86
158 2 6.53 6.36 7.86
159 2 1.77 1.51 7.13
160 2 0.46 1.51 7.89
161 2 9.16 2.71 3.37
162 2 8.28 1.48 3.37
163 2 13.06 3.59 1.12
164 2 13.5 4.82 0.36
165 2 13.94 5.12 2.61
166 2 15.25 5.14 3.36
167 2 13.52 4.82 4.86
168 2 12.21 4.84 5.62
169 2 11.31 1.17 5.63
170 2 10 1.18 4.88
171 2 10.47 6.39 5.62
172 2 10.05 5.15 4.86
173 2 12.18 1.46 1.11
174 2 13.49 1.45 1.86
175 2 13.05 2.69 5.61
176 2 13.48 1.45 6.37
177 2 9.61 4.88 7.11
178 2 9.16 3.65 7.88
179 2 8.3 4.84 3.36
180 2 9.61 4.85 2.61
181 2 10.04 5.17 0.35
182 2 11.35 5.14 1.11
183 2 10.02 1.16 0.36
184 2 10.02 1.16 1.88
185 2 13.91 1.14 4.12
186 2 14.35 14.6171 3.37
187 2 13.91 1.15 8.63
188 2 14.36 14.6371 7.86
189 2 13.94 5.14 7.11
190 2 15.26 5.16 7.86
191 2 8.28 1.51 7.89
192 2 9.59 1.51 7.13
193 2 1.75 8.83 4.12
194 2 1.33 10.07 3.36
195 2 4.39 12.19 1.1
196 2 5.25 10.94 1.11
197 2 7.43 12.49 3.36
198 2 6.12 12.48 2.61
199 2 5.68 12.17 4.85
200 2 5.68 12.18 6.37
201 2 2.17 8.54 6.37
202 2 3.49 8.52 5.61
203 2 2.64 13.74 5.61
204 2 3.52 12.51 5.61
205 2 4.35 8.81 1.13
206 2 5.66 8.81 0.36
207 2 5.23 10.04 5.63
208 2 5.65 8.8 4.88
209 2 1.78 12.24 7.11
210 2 1.34 11.01 7.88
211 2 0.48 12.2 3.35
212 2 1.79 12.21 4.11
213 2 2.23 12.49 1.85
214 2 2.65 13.72 1.09
215 2 2.19 8.52 1.88
216 2 2.2 8.52 0.36
217 2 7.38 8.49 3.39
218 2 6.07 8.48 2.63
219 2 6.07 8.5 7.13
220 2 7.38 8.51 7.89
221 2 6.12 12.49 8.61
222 2 7.43 12.51 7.85
223 2 0.46 8.86 7.86
224 2 1.77 8.86 8.62
225 2 9.57 8.85 4.13
226 2 9.57 8.84 2.61
227 2 12.21 12.19 1.1
228 2 13.08 10.94 1.11
229 2 13.95 12.48 2.6
230 2 13.95 12.48 4.11
231 2 13.52 12.18 6.36
232 2 12.21 12.19 5.6
233 2 11.31 8.52 5.61
234 2 10 8.54 6.37
235 2 10.47 13.74 5.62
236 2 10.05 12.51 4.86
237 2 13.47 8.8 1.87
238 2 13.47 8.81 0.36
239 2 13.48 8.8 4.88
240 2 13.05 10.04 5.63
241 2 9.6 12.22 8.62
242 2 9.6 12.22 7.11
243 2 9.16 10.99 3.37
244 2 9.61 12.22 2.61
245 2 10.48 13.72 1.13
246 2 10.05 12.49 0.35
247 2 11.3 8.53 1.12
248 2 10.43 7.29 1.11
249 2 15.2 8.51 3.37
250 2 14.34 7.26 3.37
251 2 14.36 7.28 7.88
252 2 13.91 8.52 7.13
253 2 15.26 12.51 7.85
254 2 13.94 12.49 8.61
255 2 9.15 10.09 7.86
256 2 9.57 8.85 8.62
257 2 1.77 1.49 11.66
258 2 0.46 1.49 12.42
259 2 5.68 4.81 10.9
260 2 5.67 4.81 9.38
261 2 6.56 6.34 12.38
262 2 6.13 5.1 13.14
263 2 4.39 4.85 14.65
264 2 5.25 3.61 14.65
265 2 2.19 1.18 13.9
266 2 2.19 1.18 15.42
267 2 2.23 5.15 15.39
268 2 2.65 6.39 14.63
269 2 4.36 1.44 10.15
270 2 5.24 2.67 10.15
271 2 4.35 1.48 14.65
272 2 5.66 1.47 15.41
273 2 1.78 4.88 17.65
274 2 1.33 3.65 16.89
275 2 1.78 4.87 13.14
276 2 1.34 3.64 12.39
277 2 2.21 5.16 10.89
278 2 3.52 5.14 10.13
279 2 2.19 1.18 9.41
280 2 2.63 14.6471 10.16
281 2 6.09 1.13 11.65
282 2 6.09 1.14 13.17
283 2 6.53 14.6371 16.9
284 2 6.09 1.15 17.67
285 2 7.43 5.16 16.9
286 2 6.12 5.14 16.15
287 2 0.46 1.51 16.89
288 2 1.77 1.51 17.66
289 2 8.28 1.48 12.41
290 2 9.16 2.71 12.4
291 2 13.5 4.81 9.38
292 2 13.5 4.81 10.9
293 2 15.25 5.14 12.39
294 2 13.94 5.13 13.14
295 2 13.51 4.84 15.39
296 2 13.06 3.61 14.64
297 2 10.46 14.6671 14.67
298 2 10.01 1.19 13.91
299 2 11.35 5.16 14.65
300 2 10.04 5.17 13.9
301 2 13.07 2.67 10.15
302 2 12.18 1.44 10.15
303 2 13.49 1.47 15.41
304 2 12.18 1.48 14.65
305 2 9.16 3.65 16.91
306 2 9.61 4.88 16.15
307 2 9.61 4.85 11.64
308 2 8.3 4.84 12.4
309 2 10.04 5.17 9.39
310 2 11.35 5.14 10.15
311 2 10.02 1.16 10.91
312 2 10.02 1.16 9.4
313 2 13.92 1.13 11.65
314 2 13.92 1.14 13.17
315 2 13.91 1.15 17.67
316 2 14.36 14.6371 16.9
317 2 14.36 6.36 16.9
318 2 15.25 5.14 16.9
319 2 8.28 1.51 16.93
320 2 9.59 1.51 16.17
321 2 1.75 8.83 11.66
322 2 1.33 10.07 12.41
323 2 5.7 12.16 10.89
324 2 4.38 12.17 10.13
325 2 6.13 12.46 13.14
326 2 6.56 13.7 12.38
327 2 4.39 12.21 14.65
328 2 5.25 10.96 14.65
329 2 3.49 8.52 14.67
330 2 2.17 8.53 13.91
331 2 2.65 13.74 14.63
332 2 2.23 12.5 15.39
333 2 5.22 10.02 10.17
334 2 5.65 8.79 9.4
335 2 5.65 8.81 13.9
336 2 5.65 8.82 15.42
337 2 0.48 12.22 16.89
338 2 1.79 12.22 17.65
339 2 0.48 12.2 12.39
340 2 1.79 12.21 13.14
341 2 2.23 12.52 9.38
342 2 2.23 12.51 10.89
343 2 2.61 7.29 10.15
344 2 3.48 8.53 10.16
345 2 7.38 8.49 12.42
346 2 6.07 8.48 11.66
347 2 6.52 7.28 16.91
348 2 7.37 8.53 16.91
349 2 6.14 12.5 17.65
350 2 6.13 12.5 16.14
351 2 1.75 8.84 16.16
352 2 1.33 10.09 16.92
353 2 9.57 8.85 13.16
354 2 9.57 8.84 11.65
355 2 13.08 10.94 10.15
356 2 12.21 12.19 10.14
357 2 14.37 13.7 12.41
358 2 13.95 12.46 11.65
359 2 12.21 12.19 14.66
360 2 13.52 12.17 13.9
361 2 11.3 8.55 14.66
362 2 10.43 7.31 14.66
363 2 10.05 12.53 15.4
364 2 10.05 12.52 13.89
365 2 13.47 8.81 9.39
366 2 13.47 8.8 10.91
367 2 13.48 8.8 13.91
368 2 13.05 10.04 14.67
369 2 9.19 11.01 16.9
370 2 8.31 12.24 16.9
371 2 8.31 12.22 12.39
372 2 9.19 10.99 12.4
373 2 10.48 13.72 10.13
374 2 10.05 12.49 10.88
375 2 10.43 7.29 10.15
376 2 11.3 8.53 10.16
377 2 15.2 8.51 12.41
378 2 14.34 7.26 12.4
379 2 15.2 8.51 16.93
380 2 13.89 8.5 16.17
381 2 13.96 12.5 17.65
382 2 13.95 12.5 16.14
383 2 9.57 8.86 16.15
384 2 9.56 8.86 17.67
ITEM: TIMESTEP
200
ITEM: NUMBER OF ATOMS
384
ITEM: BOX BOUNDS pp pp pp
2.4136573719089505e-01 1.5404311792809107e+01
2.3499875751976607e-01 1.4472146532480238e+01
3.2049711169290340e-01 1.7752539918307097e+01
ITEM: ATOMS id type x y z
1 1 1.3879 1.71252 3.29911
2 1 5.06414 4.39722 1.01385
3 1 6.39295 5.23816 3.26866
4 1 4.98151 4.35117 5.42616
5 1 2.60449 0.701744 5.42861
6 1 2.47346 5.30996 5.43363
7 1 5.07906 1.76608 1.02195
8 1 5.12826 1.63708 5.43687
9 1 1.2505 4.34535 7.59038
10 1 1.3046 4.4096 3.25121
11 1 2.46256 5.29871 1.1739
12 1 2.51635 0.83655 1.10591
13 1 6.27454 0.935502 3.25443
14 1 6.32173 0.744114 7.69071
15 1 6.31087 5.26819 7.60434
16 1 1.52015 1.72752 7.56366
17 1 8.7978 1.82374 3.18854
18 1 12.678 4.37986 1.00427
19 1 14.0138 5.25328 3.18661
20 1 12.7805 4.355 5.45391
21 1 10.165 0.845757 5.39902
22 1 10.1495 5.22477 5.51569
23 1 12.748 1.73776 1.05425
24 1 12.6561 1.72842 5.41546
25 1 8.8487 4.25449 7.53027
26 1 8.89169 4.44147 3.21473
27 1 10.1679 5.33631 1.01072
28 1 10.1745 0.956638 1.0649
29 1 13.9319 0.783461 3.18215
30 1 13.9963 0.856997 7.6348
31 1 13.984 5.31244 7.64631
32 1 8.83755 1.60713 7.51966
33 1 1.34909 8.72911 3.25783
34 1 5.0615 11.4936 1.15467
35 1 6.2842 12.4017 3.2491
36 1 4.97624 11.5074 5.36525
37 1 2.52959 8.06877 5.43506
38 1 2.41149 12.2938 5.3236
39 1 5.1296 8.89998 1.16455
40 1 5.0982 8.90059 5.36086
41 1 1.34208 11.5506 7.53181
42 1 1.31853 11.4365 3.12629
43 1 2.56556 12.3788 1.00719
44 1 2.60137 7.84057 1.0541
45 1 6.34505 7.93371 3.29442
46 1 6.29944 7.94484 7.49418
47 1 6.30656 12.3048 7.54617
48 1 1.30248 8.91017 7.64315
49 1 8.85927 8.80918 3.29964
50 1 12.7175 11.4655 1.00241
51 1 13.8777 12.3098 3.18742
52 1 12.7114 11.5933 5.41632
53 1 10.0859 7.91777 5.39713
54 1 10.1763 12.3792 5.38836
55 1 12.6588 8.84416 1.1736
56 1 12.5375 8.79724 5.3357
57 1 8.75434 11.4451 7.48874
58 1 8.87624 11.4269 3.18827
59 1 10.095 12.4241 1.17105
60 1 10.0902 7.94868 1.09259
61 1 13.929 7.98141 3.28445
62 1 13.8342 7.94334 7.46876
63 1 14.0206 12.5087 7.66617
64 1 8.79615 8.81694 7.58314
65 1 1.30354 1.65536 12.0659
66 1 5.07551 4.39711 9.77062
67 1 6.33284 5.40951 11.8739
68 1 5.12171 4.34653 14.0192
69 1 2.62506 0.865241 14.2351
70 1 2.68004 5.34793 14.1462
71 1 5.20628 1.73307 9.85533
72 1 5.10351 1.6653 14.1907
73 1 1.31687 4.43784 16.3652
74 1 1.36118 4.40236 12.0312
75 1 2.57052 5.21949 9.74543
76 1 2.5706 0.922796 9.81047
77 1 6.34619 0.800851 11.9565
78 1 6.38452 0.844197 16.3378
79 1 6.32696 5.34054 16.363
80 1 1.25182 1.71663 16.4084
81 1 8.82252 1.71087 11.9326
82 1 12.7189 4.43112 9.75665
83 1 13.9885 5.26582 11.9527
84 1 12.6534 4.40893 14.0165
85 1 10.1591 0.834926 14.1934
86 1 10.1139 5.2118 14.0934
87 1 12.6246 1.77131 9.71822
88 1 12.6405 1.7383 14.1847
89 1 8.85578 4.42952 16.3474
90 1 8.77624 4.41054 11.8814
91 1 10.1978 5.32017 9.75015
92 1 10.1174 0.864975 9.77135
93 1 13.8974 0.795138 11.9577
94 1 14.0113 0.839818 16.3723
95 1 13.9502 5.28246 16.2724
96 1 8.89137 1.78173 16.3205
97 1 1.18768 8.83212 11.8953
98 1 5.09226 11.5976 9.7263
99 1 6.37054 12.4108 11.9677
100 1 5.13803 11.5116 14.1468
101 1 2.54221 7.99012 14.1792
102 1 2.62216 12.467 14.0446
103 1 4.9914 8.95631 9.70269
104 1 5.07 8.82251 14.2494
105 1 1.43457 11.4856 16.2333
106 1 1.27727 11.4877 11.917
107 1 2.51127 12.4705 9.82975
108 1 2.54685 7.90382 9.70557
109 1 6.19576 8.05462 11.866
110 1 6.36475 7.94694 16.4242
111 1 6.32863 12.3939 16.3301
112 1 1.18272 8.8104 16.2682
113 1 8.81192 8.72337 12.037
114 1 12.6457 11.5431 9.78466
115 1 13.879 12.3997 11.9658
116 1 12.785 11.5018 14.1738
117 1 10.0949 7.92623 14.2602
118 1 10.2241 12.4165 14.2074
119 1 12.6391 8.85574 9.73228
120 1 12.6088 8.86432 14.1779
121 1 8.87108 11.5815 16.3096
122 1 8.95094 11.5068 11.9592
123 1 10.1127 12.435 9.7465
124 1 10.1583 7.92854 9.77051
125 1 13.811 7.9211 12.0158
126 1 13.923 7.90917 16.3284
127 1 14.0808 12.4171 16.3321
128 1 8.83279 8.87614 16.3734
129 2 0.393282 1.50461 3.35526
130 2 1.45201 2.90032 3.23242
131 2 5.38349 4.81908 1.75252
132 2 5.54371 4.64306 17.6035
133 2 6.14852 4.77586 4.13784
134 2 6.50162 6.31848 3.38538
135 2 3.80234 4.58622 5.38654
136 2 5.39485 4.68199 6.25643
137 2 1.84595 1.05254 4.8095
138 2 3.42344 1.05246 5.4651
139 2 1.9549 5.13078 6.24126
140 2 2.78994 6.19616 5.38048
141 2 5.44534 1.295 1.86691
142 2 4.91575 2.85404 1.13234
143 2 4.82413 2.58668 5.7391
144 2 5.60212 1.33298 6.21036
145 2 1.78904 4.60179 8.48455
146 2 1.44748 3.52715 7.46775
147 2 1.84348 4.78782 4.05936
148 2 1.95938 4.8768 2.61275
149 2 3.40816 4.85804 0.968295
150 2 2.66224 6.36875 1.08808
151 2 3.60603 1.27954 1.04902
152 2 2.17979 1.17823 2.03567
153 2 5.9392 1.17788 4.19972
154 2 6.29016 14.1751 3.32164
155 2 5.59233 1.08081 8.42494
156 2 6.22632 14.0276 7.68625
157 2 7.43344 4.90275 7.35747
158 2 6.45831 6.3559 7.42228
159 2 1.93639 1.38328 6.78741
160 2 0.480303 1.17452 7.75806
161 2 8.82687 2.78393 3.19671
162 2 7.8816 1.64509 3.26519
163 2 12.6573 3.42867 1.02024
164 2 13.199 4.53632 17.5813
165 2 13.5215 4.84572 2.39652
166 2 14.9453 5.10891 3.25908
167 2 13.1859 4.82875 4.65805
168 2 11.6857 4.84632 5.26404
169 2 11.0713 1.12079 5.27874
170 2 9.54823 1.2684 4.60104
171 2 9.87149 6.33408 5.36437
172 2 9.72843 4.72534 4.73778
173 2 11.765 1.53344 1.1262
174 2 13.3785 1.30972 1.66504
175 2 12.7068 2.76663 5.33519
176 2 13.2601 1.56733 6.15684
177 2 9.29357 4.42779 6.72353
178 2 8.6364 3.31972 7.44204
179 2 8.07698 4.82163 3.0824
180 2 9.12217 4.77743 2.27092
181 2 9.49877 5.02313 17.6942
182 2 11.0964 4.97329 0.886894
183 2 9.59159 1.43958 17.6176
184 2 9.64585 1.45634 1.69219
185 2 13.36 1.10951 3.87274
186 2 13.9295 14.0672 3.44494
187 2 13.7265 1.09879 8.45163
188 2 13.887 14.0594 7.78678
189 2 13.6036 4.84948 6.78131
190 2 15.1005 5.09668 7.74755
191 2 7.80919 1.33383 7.38319
192 2 9.45804 1.23262 6.72066
193 2 1.72196 8.55351 4.09023
194 2 1.24696 9.78797 3.07161
195 2 3.96443 11.7913 1.04794
196 2 5.10864 10.4961 1.06665
197 2 7.13059 12.0604 3.16152
198 2 5.80128 12.1034 2.44017
199 2 5.66064 11.685 4.61423
200 2 5.41676 11.7027 6.14868
201 2 1.91357 8.46843 6.14894
202 2 3.57892 8.47923 5.50318
203 2 2.60911 13.2827 5.23209
204 2 3.3874 12.1472 5.39119
205 2 4.27934 8.34766 1.17363
206 2 5.67165 8.43295 0.325676
207 2 5.33118 9.91895 5.32608
208 2 5.55024 8.65314 4.47564
209 2 1.76173 11.6184 6.62
210 2 1.29063 10.6454 7.50267
211 2 0.337342 11.7321 3.33441
212 2 1.57532 11.756 4.00767
213 2 1.99668 11.9813 1.77964
214 2 2.6653 13.3742 1.13057
215 2 2.06512 8.18239 1.77973
216 2 1.86069 8.28659 0.340953
217 2 7.2661 8.36015 3.19472
218 2 5.82863 8.26594 2.51235
219 2 5.79803 8.24449 6.78921
220 2 7.1385 8.39176 7.32448
221 2 5.80306 11.9908 8.41496
222 2 7.27341 12.0392 7.43003
223 2 0.401034 8.50825 7.45007
224 2 1.76579 8.41921 8.35015
225 2 9.44267 8.45106 4.13707
226 2 9.32199 8.62656 2.42691
227 2 11.7311 11.8865 0.999326
228 2 12.5041 10.4638 1.11716
229 2 13.1361 11.9287 2.57261
230 2 13.4492 12.1511 4.05749
231 2 13.3164 12.0711 6.11676
232 2 11.6753 11.9189 5.57032
233 2 11.0328 8.30989 5.45589
234 2 9.62622 8.38747 6.26343
235 2 10.2059 13.5647 5.51057
236 2 9.67802 12.0801 4.51123
237 2 13.3111 8.62283 1.9478
238 2 13.2029 8.46537 17.6167
239 2 13.0695 8.58167 4.55379
240 2 12.4229 9.83144 5.30418
241 2 9.38687 11.8549 8.04281
242 2 9.20951 11.8493 6.53385
243 2 8.91637 10.634 3.11451
244 2 9.31264 11.6828 2.36119
245 2 9.9999 13.3998 1.21316
246 2 9.71887 12.3439 17.6809
247 2 10.9959 8.33406 1.32835
248 2 10.3218 6.93657 1.03441
249 2 14.9559 8.2357 3.25466
250 2 14.0357 6.98367 3.09235
251 2 13.6016 7.00205 7.4093
252 2 13.3811 8.41346 6.5648
253 2 14.9972 12.2715 7.64474
254 2 13.6529 12.1227 8.46812
255 2 8.79564 9.82516 7.46005
256 2 9.26953 8.37485 8.31022
257 2 1.84608 1.27195 11.1543
258 2 0.370566 1.34566 11.9594
259 2 5.59809 4.69423 10.5051
260 2 5.42647 5.08822 8.99644
261 2 6.12399 6.27696 11.8274
262 2 5.66698 4.7636 12.754
263 2 4.1295 4.55023 13.99
264 2 4.88037 3.42988 14.1409
265 2 1.93296 1.35221 13.6847
266 2 2.30164 1.07867 15.1981
267 2 2.36852 5.00407 15.0125
268 2 2.46395 6.2739 14.2731
269 2 4.27968 1.52228 9.80738
270 2 5.28373 2.73108 9.7936
271 2 4.18412 1.38438 14.0707
272 2 5.60511 1.46221 15.0704
273 2 1.62797 4.70126 17.3707
274 2 1.21896 3.4854 16.3781
275 2 1.9173 4.63761 12.8116
276 2 1.56034 3.17428 12.0319
277 2 2.24364 4.99929 10.664
278 2 3.6179 5.00387 9.89606
279 2 2.05335 1.32413 8.91673
280 2 2.59789 14.2305 9.87837
281 2 5.71805 1.10793 11.3148
282 2 5.99288 0.901726 12.992
283 2 6.49333 13.8681 16.3744
284 2 5.99501 1.16799 17.1748
285 2 7.36507 4.98602 16.2764
286 2 5.94227 4.91327 15.4217
287 2 0.303288 1.40332 16.4617
288 2 1.85584 1.57459 17.1987
289 2 7.98405 1.25668 12.0085
290 2 8.65037 2.76816 11.9443
291 2 13.2714 4.79194 9.06429
292 2 13.2103 4.83818 10.6409
293 2 15.0286 5.21572 12.0478
294 2 13.706 4.78393 12.8011
295 2 13.1756 4.67868 14.8129
296 2 12.8259 3.35907 14.0191
297 2 10.3094 14.2181 14.15
298 2 9.62226 1.19108 13.3345
299 2 10.9825 5.03201 13.9904
300 2 9.78209 4.90152 13.0712
301 2 12.5941 2.74804 9.8616
302 2 11.8896 1.21889 9.88453
303 2 13.3137 1.57213 14.9346
304 2 11.6475 1.4068 14.0051
305 2 8.72569 3.40643 16.5613
306 2 9.13342 4.66862 15.4936
307 2 9.09866 4.8346 10.9823
308 2 7.72507 4.66341 12.0634
309 2 9.91243 5.06302 8.74636
310 2 11.1175 5.09622 9.6875
311 2 9.75639 1.13077 10.6532
312 2 9.74268 1.27736 8.95501
313 2 13.2897 1.13079 11.1036
314 2 13.3086 1.20042 12.6088
315 2 13.6358 1.08408 17.2302
316 2 13.9632 14.0236 16.4127
317 2 13.8181 6.2799 16.3292
318 2 14.8598 4.97268 16.1312
319 2 7.90624 1.40275 16.1826
320 2 9.46275 1.41356 15.6716
321 2 1.4581 8.68485 11.0433
322 2 0.970933 9.95237 12.0128
323 2 5.5099 11.9219 10.6167
324 2 4.05461 12.0498 9.84009
325 2 5.83401 12.1758 12.907
326 2 6.52637 13.3289 11.9958
327 2 4.10741 11.9117 14.1546
328 2 4.86117 10.5917 14.0646
329 2 3.54051 8.37159 14.2026
330 2 1.95468 8.35704 13.3332
331 2 2.62906 13.5399 14.0913
332 2 1.98304 11.9757 14.8284
333 2 4.91093 9.97019 9.74898
334 2 5.70882 8.6167 9.09749
335 2 5.72956 8.54326 13.3911
336 2 5.67364 8.59543 15.0262
337 2 0.530332 11.6735 16.3058
338 2 1.82017 11.9395 17.0466
339 2 0.314208 11.7909 12.1001
340 2 1.93897 11.7844 12.7003
341 2 1.99852 12.0335 8.95479
342 2 2.15721 11.9989 10.6302
343 2 2.44111 6.80913 9.83463
344 2 3.38237 8.22667 9.686
345 2 7.11575 8.39006 11.8406
346 2 5.57704 8.6312 11.2509
347 2 6.23977 6.85297 16.2926
348 2 7.22916 8.38158 16.6112
349 2 6.16734 11.9442 17.2397
350 2 5.86436 11.8316 15.5037
351 2 2.00581 8.76128 15.607
352 2 1.43278 9.67197 16.2776
353 2 9.23352 8.32332 12.7401
354 2 9.24347 8.27704 11.2122
355 2 12.4013 10.6874 10.171
356 2 11.7379 11.7796 9.58725
357 2 13.8443 13.5017 12.0435
358 2 13.6098 12.1448 11.0473
359 2 11.7542 11.827 14.1409
360 2 13.249 11.9116 13.4036
361 2 11.04 8.39021 14.2045
362 2 10.1902 6.91628 14.2765
363 2 9.61929 12.0204 15.0159
364 2 9.89419 11.8382 13.4089
365 2 12.9611 8.60588 8.87932
366 2 13.1862 8.46854 10.3458
367 2 13.0882 8.5599 13.3604
368 2 12.5514 9.85934 14.1904
369 2 8.91266 10.3584 16.3582
370 2 8.0394 11.8006 16.3607
371 2 7.99045 11.6368 11.8262
372 2 8.84754 10.5628 11.9361
373 2 10.1716 13.3844 9.84034
374 2 9.64005 12.0785 10.5215
375 2 10.3388 6.94569 9.6457
376 2 10.9858 8.32909 9.63528
377 2 14.7117 8.18607 11.7464
378 2 13.9205 7.01579 12.1168
379 2 14.7406 8.39433 16.3204
380 2 13.2974 8.28914 15.6663
381 2 13.5313 11.9494 17.1142
382 2 13.6396 12.0502 15.6365
383 2 9.2474 8.44742 15.4822
384 2 9.36815 8.411 17.1415
ITEM: TIMESTEP
400
ITEM: NUMBER OF ATOMS
384
ITEM: BOX BOUNDS pp pp pp
4.6654049692420863e-01 1.5179137033075790e+01
4.3348055518130035e-01 1.4273664734818711e+01
6.2313843955395143e-01 1.7449898590446061e+01
ITEM: ATOMS id type x y z
1 1 1.42368 1.63092 3.29418
2 1 4.98896 4.43549 1.07145
3 1 6.23336 5.12179 3.22529
4 1 4.86845 4.15454 5.11037
5 1 2.52306 0.495742 5.33139
6 1 2.4889 5.17911 5.28848
7 1 4.89637 1.69416 1.24399
8 1 4.97645 1.62112 5.26678
9 1 1.2918 4.36898 7.38117
10 1 1.26997 4.33408 3.13909
11 1 2.44496 5.07405 1.00252
12 1 2.47339 0.978872 1.05641
13 1 6.20166 0.834565 3.21635
14 1 6.24438 0.767429 7.34909
15 1 6.08448 5.1007 7.13037
16 1 1.42442 1.66663 7.34487
17 1 8.54426 1.78331 3.1465
18 1 12.1979 4.14014 0.768653
19 1 13.387 4.98573 2.96758
20 1 12.2354 4.11849 5.08594
21 1 9.87835 0.672438 5.11783
22 1 9.79913 5.09089 5.24207
23 1 12.248 1.54073 0.976623
24 1 12.4215 1.55768 5.3234
25 1 8.61753 4.14197 7.32766
26 1 8.66491 4.42245 3.05138
27 1 9.88372 5.2326 0.83476
28 1 9.77016 0.894352 1.10128
29 1 13.6767 0.914557 3.16403
30 1 13.6129 0.846656 7.51226
31 1 13.5027 5.21972 7.11736
32 1 8.7619 1.49284 7.30386
33 1 1.30868 8.46528 3.11551
34 1 4.98148 11.1422 1.04074
35 1 6.23067 12.0687 3.03466
36 1 4.89118 11.2827 5.16432
37 1 2.4625 7.73981 5.31369
38 1 2.33885 11.9003 5.24851
39 1 4.7884 8.55489 1.0857
40 1 4.92032 8.61355 5.14975
41 1 1.26471 11.0387 7.36499
42 1 1.25451 11.1937 3.04816
43 1 2.53662 12.192 1.057
44 1 2.38636 7.63584 0.93539
45 1 6.21387 7.72939 3.02263
46 1 6.03153 7.79523 7.29266
47 1 6.02085 12.0568 7.31965
48 1 1.15059 8.47503 7.35935
49 1 8.71724 8.4987 3.1025
50 1 12.2894 11.1943 1.13758
51 1 13.4642 12.1733 3.06198
52 1 12.2786 11.3378 5.22261
53 1 9.89322 7.66005 5.28717
54 1 9.83947 12.0327 5.28972
55 1 12.4003 8.58652 1.09035
56 1 12.2489 8.74788 5.1099
57 1 8.4212 11.1458 7.27025
58 1 8.68361 11.1902 3.09259
59 1 9.92822 12.1407 1.00038
60 1 9.87285 7.73639 1.05588
61 1 13.5216 7.65559 3.1525
62 1 13.3543 7.81742 7.24008
63 1 13.4939 12.1416 7.49767
64 1 8.4926 8.65539 7.27704
65 1 1.40438 1.62045 11.6079
66 1 4.96538 4.32726 9.36608
67 1 6.23581 5.27063 11.5441
68 1 4.96145 4.50182 13.5969
69 1 2.59179 0.765953 13.6867
70 1 2.42818 5.23538 13.6869
71 1 5.04429 1.67017 9.62288
72 1 4.92753 1.82528 13.8224
73 1 1.13793 4.28974 15.7136
74 1 1.33257 4.214 11.7116
75 1 2.50152 5.12687 9.5743
76 1 2.5616 0.799283 9.50932
77 1 6.19875 0.749939 11.7337
78 1 6.0569 0.772377 15.851
79 1 6.32876 5.16438 15.7414
80 1 1.19972 1.69395 15.7458
81 1 8.45416 1.68347 11.5608
82 1 12.341 4.31543 9.40954
83 1 13.57 5.07387 11.5937
84 1 12.2263 4.15905 13.5346
85 1 9.76152 0.802869 13.5505
86 1 9.74604 4.95514 13.4681
87 1 12.2373 1.74456 9.56129
88 1 12.2613 1.48678 13.7138
89 1 8.73162 4.11489 15.6174
90 1 8.56962 4.27837 11.2956
91 1 9.89354 5.1538 9.30184
92 1 9.95723 0.703167 9.49633
93 1 13.6604 0.920988 11.5511
94 1 13.6173 0.594773 15.881
95 1 13.4387 5.17138 15.5703
96 1 8.61634 1.49965 15.7592
97 1 1.21524 8.73319 11.5749
98 1 4.8968 11.2669 9.52297
99 1 6.17584 11.9062 11.6654
100 1 4.87932 11.209 13.7438
101 1 2.41219 7.7608 13.5434
102 1 2.39434 11.992 13.571
103 1 4.74263 8.60414 9.42331
104 1 4.72382 8.67599 13.7084
105 1 1.37827 11.0296 15.7755
106 1 1.26962 11.3434 11.5262
107 1 2.42702 12.1319 9.40972
108 1 2.33178 7.67641 9.45276
109 1 6.1032 7.90727 11.5062
110 1 6.11525 7.75689 15.7307
111 1 6.19611 12.0316 15.7654
112 1 1.24939 8.53048 15.7656
113 1 8.64764 8.61885 11.4579
114 1 12.1873 11.2225 9.45872
115 1 13.4897 12.2498 11.4626
116 1 12.2228 11.3068 13.5149
117 1 9.76994 7.60319 13.7083
118 1 9.73923 12.0491 13.48
119 1 12.2355 8.60621 9.46035
120 1 12.2273 8.62708 13.6011
121 1 8.60439 11.2919 15.8099
122 1 8.54453 11.1073 11.4605
123 1 9.73756 12.0109 9.4099
124 1 9.81211 7.72983 9.4031
125 1 13.5045 7.66888 11.5175
126 1 13.5021 7.75491 15.683
127 1 13.5326 11.7601 15.7687
128 1 8.57116 8.62744 15.743
129 2 15.07 1.49648 3.36829
130 2 1.29548 2.67128 3.10815
131 2 5.8006 4.68787 1.83613
132 2 5.79742 4.82013 17.1773
133 2 5.75188 4.78479 4.01977
134 2 6.18777 6.18225 3.30835
135 2 3.78954 4.48069 5.16875
136 2 5.52381 4.58635 5.92475
137 2 1.93487 1.04437 4.50284
138 2 3.33714 0.955536 5.14005
139 2 2.09716 4.98059 6.12795
140 2 2.31593 6.19202 5.3308
141 2 5.64103 1.47618 2.08227
142 2 4.88652 2.77648 1.03928
143 2 4.52149 2.59182 5.15994
144 2 5.28704 1.43679 6.19226
145 2 1.63855 4.74617 8.24297
146 2 1.05303 3.29845 7.34147
147 2 1.72805 4.57959 3.96472
148 2 1.65772 4.88872 2.42231
149 2 3.51005 4.81718 0.804189
150 2 2.53816 5.9911 1.14443
151 2 3.30616 1.47565 0.997373
152 2 1.94044 1.24369 1.95774
153 2 5.81387 1.07891 4.09601
154 2 6.36244 13.6315 3.12955
155 2 5.78321 1.0473 8.20938
156 2 6.28064 13.7172 7.57908
157 2 7.07088 4.64689 7.12221
158 2 6.03927 6.05548 7.32829
159 2 1.73293 1.26775 6.39924
160 2 15.0995 1.42451 7.35562
161 2 8.45951 2.75924 3.13271
162 2 7.66765 1.35613 3.07631
163 2 11.9921 3.17003 0.766141
164 2 12.5726 4.43111 16.7413
165 2 12.9987 4.7444 1.90773
166 2 14.3465 4.52572 2.84429
167 2 12.6837 4.42115 4.24502
168 2 11.4795 4.65543 4.98536
169 2 10.9327 0.908947 5.41701
170 2 9.61935 1.06632 4.25898
171 2 9.82774 6.06599 5.32298
172 2 9.30014 4.98574 4.33732
173 2 11.3341 1.22862 1.12001
174 2 12.5679 1.31545 2.01192
175 2 12.2044 2.53251 5.32532
176 2 12.7605 1.23999 6.18966
177 2 8.81554 4.4876 6.51764
178 2 8.77526 3.08689 7.15926
179 2 7.53664 4.49202 3.14634
180 2 9.05671 4.53057 2.03632
181 2 9.38346 4.79096 17.0317
182 2 10.7943 4.90411 0.991738
183 2 8.95806 1.20804 17.138
184 2 9.22957 1.23362 1.8927
185 2 13.0222 1.39798 3.86249
186 2 13.5377 13.6621 3.20726
187 2 13.1007 1.1773 8.20334
188 2 13.7087 13.7063 7.69581
189 2 13.2665 4.62681 6.25291
190 2 14.3725 4.87621 7.62858
191 2 7.76701 1.23861 7.408
192 2 9.2508 1.03559 6.46493
193 2 1.78821 8.10209 3.83362
194 2 1.33938 9.44027 3.28018
195 2 4.11957 11.5089 1.20281
196 2 4.78472 10.2609 1.23611
197 2 7.18593 11.778 3.08124
198 2 5.73433 11.7838 2.23309
199 2 5.45402 11.5939 4.44683
200 2 5.32105 11.7079 6.00491
201 2 1.97782 8.14598 6.21994
202 2 3.40045 8.12184 5.40488
203 2 2.41318 12.907 5.17004
204 2 3.41859 11.7744 5.21695
205 2 3.69992 8.26836 1.00136
206 2 5.23083 8.45067 17.0862
207 2 4.95304 9.59188 5.10108
208 2 5.51819 8.18234 4.2043
209 2 1.88163 11.0681 6.55085
210 2 1.02513 10.0927 7.3939
211 2 14.9812 11.5983 3.07677
212 2 1.76094 11.4078 3.87587
213 2 1.97947 11.9936 1.87308
214 2 2.67037 13.2498 1.14867
215 2 1.83116 7.95416 1.64693
216 2 1.8507 7.97694 16.8646
217 2 7.21752 7.72639 2.91397
218 2 5.78841 8.16115 2.19406
219 2 5.64289 7.95902 6.33876
220 2 6.97644 8.32463 7.27315
221 2 5.49909 11.7078 8.15321
222 2 6.98948 11.5963 7.35162
223 2 14.8106 8.19821 7.20585
224 2 1.38368 8.37639 8.28201
225 2 9.04739 8.26783 4.06427
226 2 9.10911 8.16809 2.37144
227 2 11.3154 11.6564 0.897268
228 2 12.1873 10.2381 0.943134
229 2 13.1425 11.7238 2.21437
230 2 13.1459 11.9142 3.89866
231 2 12.7593 11.7784 6.10682
232 2 11.272 11.5155 5.37992
233 2 10.725 8.14076 5.23097
234 2 9.29416 8.13224 5.99234
235 2 9.84693 12.9234 5.13158
236 2 9.42866 11.6558 4.40647
237 2 12.963 8.33291 1.86421
238 2 12.7729 8.19 17.0669
239 2 12.524 8.4134 4.19236
240 2 12.1307 9.903 5.28175
241 2 9.13377 11.4136 8.10773
242 2 9.17929 11.5651 6.6379
243 2 8.79181 10.1179 2.99327
244 2 9.15399 11.5388 2.30391
245 2 9.853 13.1126 0.865855
246 2 9.52356 11.8629 16.933
247 2 10.6903 7.98507 0.899387
248 2 9.99236 6.52944 0.921087
249 2 14.464 7.93641 3.26489
250 2 13.4923 6.70234 3.18332
251 2 13.3704 6.80165 7.15854
252 2 12.8228 8.30931 6.55765
253 2 14.5418 11.682 7.32331
254 2 13.0426 11.6444 8.32342
255 2 8.48566 9.68186 7.42063
256 2 8.96138 8.34303 8.07939
257 2 1.94743 1.2854 10.8032
258 2 0.522838 1.19959 11.6947
259 2 5.30978 4.62983 10.2985
260 2 5.40388 4.56824 8.62719
261 2 6.00881 6.35949 11.3605
262 2 5.7143 4.96297 12.3373
263 2 3.95201 4.659 13.6896
264 2 5.07733 3.50653 13.651
265 2 2.35591 1.11253 12.6244
266 2 1.99862 1.29893 14.3685
267 2 2.04966 4.94314 14.5228
268 2 2.54891 6.40117 13.7762
269 2 4.25356 1.33305 9.26627
270 2 5.00613 2.54488 9.45341
271 2 3.90282 1.44274 13.7995
272 2 5.22683 1.41959 14.5585
273 2 1.62762 4.64369 16.4761
274 2 1.32286 3.37871 15.6397
275 2 1.96839 4.30258 12.4663
276 2 1.49491 2.94587 11.5862
277 2 1.82444 4.90882 10.3696
278 2 3.36894 4.60261 9.69434
279 2 2.12858 1.15934 8.54538
280 2 2.63291 13.583 9.44844
281 2 5.8368 1.14233 10.9987
282 2 5.80411 1.13251 12.6283
283 2 6.03169 13.5349 15.8482
284 2 5.50772 1.02733 16.6291
285 2 7.37414 4.62769 15.7574
286 2 5.67614 4.83136 14.9158
287 2 15.0153 1.03004 15.7143
288 2 1.60044 1.27907 16.5896
289 2 7.44251 1.41646 11.6795
290 2 8.64223 2.64985 11.5286
291 2 12.7157 4.65488 8.54763
292 2 12.9335 4.69268 10.238
293 2 14.5535 4.69057 11.6384
294 2 13.1376 4.60221 12.3297
295 2 12.8752 4.65694 14.3252
296 2 12.3808 3.15754 13.6859
297 2 9.648 13.7235 13.3902
298 2 9.16533 1.28948 12.9345
299 2 10.7464 4.58501 13.2995
300 2 9.24584 4.87403 12.5758
301 2 11.852 2.66063 9.39555
302 2 11.4928 1.11603 9.93931
303 2 12.7972 1.09109 14.46
304 2 11.2323 1.2425 13.7304
305 2 8.51137 3.09305 15.5931
306 2 9.08226 4.4843 14.6451
307 2 8.88959 4.69196 10.5723
308 2 7.57431 4.73521 11.4256
309 2 9.4614 4.88218 8.51747
310 2 10.9183 5.03244 9.33677
311 2 9.49391 1.17227 10.5849
312 2 9.57823 1.01662 8.80628
313 2 13.1393 1.27928 10.7789
314 2 13.0882 1.12648 12.2435
315 2 13.0464 1.11668 16.6812
316 2 13.3617 13.4829 16.0161
317 2 13.3547 6.10614 15.3568
318 2 14.3864 5.12102 15.555
319 2 7.66858 1.15124 15.6451
320 2 9.20407 1.06688 14.9766
321 2 1.70396 8.31382 10.7734
322 2 1.28696 9.84985 11.6867
323 2 5.42578 11.5975 10.3879
324 2 3.95872 11.2155 9.53853
325 2 5.58682 11.5224 12.3607
326 2 6.18788 13.0491 11.8082
327 2 3.87875 11.3379 13.4746
328 2 4.79842 10.2265 13.7871