ITEM: TIMESTEP
0
ITEM: NUMBER OF ATOMS
384
ITEM: BOX BOUNDS pp pp pp
0.0000000000000000e+00 1.5645677530000000e+01
0.0000000000000000e+00 1.4707145290000000e+01
0.0000000000000000e+00 1.8073037029999998e+01
ITEM: ATOMS id type x y z
1 1 1.38 1.76 3.37
2 1 5.2 4.47 1.11
3 1 6.59 5.39 3.31
4 1 5.28 4.49 5.56
5 1 2.59 0.84 5.67
6 1 2.69 5.43 5.56
7 1 5.2 1.71 1.07
8 1 5.2 1.73 5.58
9 1 1.32 4.61 7.82
10 1 1.3 4.52 3.36
11 1 2.61 5.41 1.1
12 1 2.59 0.82 1.07
13 1 6.54 0.87 3.33
14 1 6.54 0.88 7.83
15 1 6.51 5.4 7.86
16 1 1.35 1.85 7.92
17 1 9.2 1.76 3.37
18 1 13.05 4.55 1.15
19 1 14.35 5.46 3.4
20 1 13.1 4.49 5.66
21 1 10.41 0.84 5.67
22 1 10.51 5.43 5.65
23 1 13.07 1.79 1.07
24 1 13.02 1.73 5.58
25 1 9.15 4.61 7.91
26 1 9.2 4.52 3.4
27 1 10.45 5.49 1.15
28 1 10.49 0.82 1.12
29 1 14.36 0.87 3.33
30 1 14.36 0.88 7.83
31 1 14.36 5.48 7.9
32 1 9.17 1.85 7.92
33 1 1.3 9.11 3.32
34 1 5.3 11.9 1.11
35 1 6.53 12.81 3.4
36 1 5.2 11.84 5.61
37 1 2.59 8.19 5.58
38 1 2.61 12.79 5.61
39 1 5.25 9.14 1.16
40 1 5.2 9.08 5.67
41 1 1.32 11.96 7.91
42 1 1.38 11.87 3.31
43 1 2.69 12.77 1.06
44 1 2.67 8.17 1.12
45 1 6.49 8.14 3.42
46 1 6.49 8.16 7.92
47 1 6.53 12.83 7.81
48 1 1.35 9.21 7.83
49 1 9.09 9.19 3.37
50 1 13.13 11.9 1.11
51 1 14.44 12.82 3.35
52 1 13.1 11.84 5.56
53 1 10.41 8.19 5.58
54 1 10.51 12.79 5.65
55 1 12.99 9.14 1.12
56 1 13.02 9.08 5.67
57 1 9.12 11.89 7.86
58 1 9.15 11.95 3.4
59 1 10.51 12.77 1.15
60 1 10.38 8.25 1.12
61 1 14.29 8.22 3.37
62 1 14.36 8.24 7.92
63 1 14.36 12.83 7.81
64 1 9.12 9.13 7.83
65 1 1.35 1.83 12.45
66 1 5.2 4.47 10.14
67 1 6.59 5.39 12.34
68 1 5.3 4.56 14.65
69 1 2.67 0.84 14.66
70 1 2.69 5.43 14.6
71 1 5.28 1.71 10.15
72 1 5.25 1.81 14.61
73 1 1.32 4.61 16.85
74 1 1.32 4.59 12.35
75 1 2.63 5.49 10.09
76 1 2.64 0.89 10.2
77 1 6.57 0.79 12.41
78 1 6.54 0.88 16.87
79 1 6.53 5.48 16.94
80 1 1.35 1.85 16.86
81 1 9.2 1.76 12.41
82 1 13.02 4.47 10.14
83 1 14.35 5.46 12.34
84 1 13.05 4.57 14.6
85 1 10.46 0.91 14.71
86 1 10.46 5.51 14.69
87 1 13.1 1.71 10.15
88 1 13.07 1.81 14.61
89 1 9.15 4.61 16.94
90 1 9.2 4.52 12.44
91 1 10.45 5.49 10.18
92 1 10.49 0.82 10.16
93 1 14.39 0.79 12.41
94 1 14.36 0.88 16.87
95 1 14.33 5.4 16.89
96 1 9.17 1.85 16.96
97 1 1.3 9.11 12.45
98 1 5.28 11.83 10.1
99 1 6.59 12.74 12.34
100 1 5.3 11.92 14.65
101 1 2.59 8.19 14.71
102 1 2.69 12.79 14.6
103 1 5.2 9.07 10.2
104 1 5.17 9.16 14.66
105 1 1.38 11.89 16.85
106 1 1.38 11.87 12.35
107 1 2.71 12.84 10.14
108 1 2.56 8.25 10.16
109 1 6.49 8.14 12.46
110 1 6.46 8.24 16.91
111 1 6.61 12.83 16.89
112 1 1.3 9.13 16.96
113 1 9.09 9.19 12.41
114 1 13.13 11.9 10.14
115 1 14.41 12.74 12.44
116 1 13.1 11.84 14.69
117 1 10.38 8.27 14.66
118 1 10.53 12.86 14.64
119 1 12.99 9.14 10.15
120 1 13.02 9.08 14.7
121 1 9.23 11.96 16.9
122 1 9.23 11.95 12.39
123 1 10.51 12.77 10.09
124 1 10.38 8.25 10.16
125 1 14.29 8.22 12.41
126 1 14.31 8.16 16.96
127 1 14.44 12.83 16.89
128 1 9.09 9.21 16.91
129 2 0.46 1.48 3.37
130 2 1.33 2.71 3.37
131 2 5.68 4.81 1.86
132 2 5.67 4.81 0.35
133 2 6.13 5.1 4.1
134 2 6.56 6.34 3.34
135 2 4.38 4.84 5.6
136 2 5.7 4.83 6.36
137 2 2.17 1.18 4.88
138 2 3.49 1.17 5.63
139 2 2.23 5.15 6.35
140 2 2.65 6.39 5.59
141 2 5.65 1.43 1.86
142 2 5.23 2.67 1.1
143 2 5.23 2.69 5.61
144 2 5.65 1.45 6.37
145 2 1.78 4.88 8.61
146 2 1.33 3.65 7.85
147 2 1.78 4.85 4.11
148 2 1.78 4.85 2.6
149 2 3.52 5.14 1.1
150 2 2.64 6.37 1.11
151 2 3.49 1.15 1.11
152 2 2.17 1.16 1.87
153 2 6.09 1.14 4.12
154 2 6.53 14.6171 3.37
155 2 6.09 1.15 8.63
156 2 6.53 14.6371 7.86
157 2 7.43 5.14 7.86
158 2 6.53 6.36 7.86
159 2 1.77 1.51 7.13
160 2 0.46 1.51 7.89
161 2 9.16 2.71 3.37
162 2 8.28 1.48 3.37
163 2 13.06 3.59 1.12
164 2 13.5 4.82 0.36
165 2 13.94 5.12 2.61
166 2 15.25 5.14 3.36
167 2 13.52 4.82 4.86
168 2 12.21 4.84 5.62
169 2 11.31 1.17 5.63
170 2 10 1.18 4.88
171 2 10.47 6.39 5.62
172 2 10.05 5.15 4.86
173 2 12.18 1.46 1.11
174 2 13.49 1.45 1.86
175 2 13.05 2.69 5.61
176 2 13.48 1.45 6.37
177 2 9.61 4.88 7.11
178 2 9.16 3.65 7.88
179 2 8.3 4.84 3.36
180 2 9.61 4.85 2.61
181 2 10.04 5.17 0.35
182 2 11.35 5.14 1.11
183 2 10.02 1.16 0.36
184 2 10.02 1.16 1.88
185 2 13.91 1.14 4.12
186 2 14.35 14.6171 3.37
187 2 13.91 1.15 8.63
188 2 14.36 14.6371 7.86
189 2 13.94 5.14 7.11
190 2 15.26 5.16 7.86
191 2 8.28 1.51 7.89
192 2 9.59 1.51 7.13
193 2 1.75 8.83 4.12
194 2 1.33 10.07 3.36
195 2 4.39 12.19 1.1
196 2 5.25 10.94 1.11
197 2 7.43 12.49 3.36
198 2 6.12 12.48 2.61
199 2 5.68 12.17 4.85
200 2 5.68 12.18 6.37
201 2 2.17 8.54 6.37
202 2 3.49 8.52 5.61
203 2 2.64 13.74 5.61
204 2 3.52 12.51 5.61
205 2 4.35 8.81 1.13
206 2 5.66 8.81 0.36
207 2 5.23 10.04 5.63
208 2 5.65 8.8 4.88
209 2 1.78 12.24 7.11
210 2 1.34 11.01 7.88
211 2 0.48 12.2 3.35
212 2 1.79 12.21 4.11
213 2 2.23 12.49 1.85
214 2 2.65 13.72 1.09
215 2 2.19 8.52 1.88
216 2 2.2 8.52 0.36
217 2 7.38 8.49 3.39
218 2 6.07 8.48 2.63
219 2 6.07 8.5 7.13
220 2 7.38 8.51 7.89
221 2 6.12 12.49 8.61
222 2 7.43 12.51 7.85
223 2 0.46 8.86 7.86
224 2 1.77 8.86 8.62
225 2 9.57 8.85 4.13
226 2 9.57 8.84 2.61
227 2 12.21 12.19 1.1
228 2 13.08 10.94 1.11
229 2 13.95 12.48 2.6
230 2 13.95 12.48 4.11
231 2 13.52 12.18 6.36
232 2 12.21 12.19 5.6
233 2 11.31 8.52 5.61
234 2 10 8.54 6.37
235 2 10.47 13.74 5.62
236 2 10.05 12.51 4.86
237 2 13.47 8.8 1.87
238 2 13.47 8.81 0.36
239 2 13.48 8.8 4.88
240 2 13.05 10.04 5.63
241 2 9.6 12.22 8.62
242 2 9.6 12.22 7.11
243 2 9.16 10.99 3.37
244 2 9.61 12.22 2.61
245 2 10.48 13.72 1.13
246 2 10.05 12.49 0.35
247 2 11.3 8.53 1.12
248 2 10.43 7.29 1.11
249 2 15.2 8.51 3.37
250 2 14.34 7.26 3.37
251 2 14.36 7.28 7.88
252 2 13.91 8.52 7.13
253 2 15.26 12.51 7.85
254 2 13.94 12.49 8.61
255 2 9.15 10.09 7.86
256 2 9.57 8.85 8.62
257 2 1.77 1.49 11.66
258 2 0.46 1.49 12.42
259 2 5.68 4.81 10.9
260 2 5.67 4.81 9.38
261 2 6.56 6.34 12.38
262 2 6.13 5.1 13.14
263 2 4.39 4.85 14.65
264 2 5.25 3.61 14.65
265 2 2.19 1.18 13.9
266 2 2.19 1.18 15.42
267 2 2.23 5.15 15.39
268 2 2.65 6.39 14.63
269 2 4.36 1.44 10.15
270 2 5.24 2.67 10.15
271 2 4.35 1.48 14.65
272 2 5.66 1.47 15.41
273 2 1.78 4.88 17.65
274 2 1.33 3.65 16.89
275 2 1.78 4.87 13.14
276 2 1.34 3.64 12.39
277 2 2.21 5.16 10.89
278 2 3.52 5.14 10.13
279 2 2.19 1.18 9.41
280 2 2.63 14.6471 10.16
281 2 6.09 1.13 11.65
282 2 6.09 1.14 13.17
283 2 6.53 14.6371 16.9
284 2 6.09 1.15 17.67
285 2 7.43 5.16 16.9
286 2 6.12 5.14 16.15
287 2 0.46 1.51 16.89
288 2 1.77 1.51 17.66
289 2 8.28 1.48 12.41
290 2 9.16 2.71 12.4
291 2 13.5 4.81 9.38
292 2 13.5 4.81 10.9
293 2 15.25 5.14 12.39
294 2 13.94 5.13 13.14
295 2 13.51 4.84 15.39
296 2 13.06 3.61 14.64
297 2 10.46 14.6671 14.67
298 2 10.01 1.19 13.91
299 2 11.35 5.16 14.65
300 2 10.04 5.17 13.9
301 2 13.07 2.67 10.15
302 2 12.18 1.44 10.15
303 2 13.49 1.47 15.41
304 2 12.18 1.48 14.65
305 2 9.16 3.65 16.91
306 2 9.61 4.88 16.15
307 2 9.61 4.85 11.64
308 2 8.3 4.84 12.4
309 2 10.04 5.17 9.39
310 2 11.35 5.14 10.15
311 2 10.02 1.16 10.91
312 2 10.02 1.16 9.4
313 2 13.92 1.13 11.65
314 2 13.92 1.14 13.17
315 2 13.91 1.15 17.67
316 2 14.36 14.6371 16.9
317 2 14.36 6.36 16.9
318 2 15.25 5.14 16.9
319 2 8.28 1.51 16.93
320 2 9.59 1.51 16.17
321 2 1.75 8.83 11.66
322 2 1.33 10.07 12.41
323 2 5.7 12.16 10.89
324 2 4.38 12.17 10.13
325 2 6.13 12.46 13.14
326 2 6.56 13.7 12.38
327 2 4.39 12.21 14.65
328 2 5.25 10.96 14.65
329 2 3.49 8.52 14.67
330 2 2.17 8.53 13.91
331 2 2.65 13.74 14.63
332 2 2.23 12.5 15.39
333 2 5.22 10.02 10.17
334 2 5.65 8.79 9.4
335 2 5.65 8.81 13.9
336 2 5.65 8.82 15.42
337 2 0.48 12.22 16.89
338 2 1.79 12.22 17.65
339 2 0.48 12.2 12.39
340 2 1.79 12.21 13.14
341 2 2.23 12.52 9.38
342 2 2.23 12.51 10.89
343 2 2.61 7.29 10.15
344 2 3.48 8.53 10.16
345 2 7.38 8.49 12.42
346 2 6.07 8.48 11.66
347 2 6.52 7.28 16.91
348 2 7.37 8.53 16.91
349 2 6.14 12.5 17.65
350 2 6.13 12.5 16.14
351 2 1.75 8.84 16.16
352 2 1.33 10.09 16.92
353 2 9.57 8.85 13.16
354 2 9.57 8.84 11.65
355 2 13.08 10.94 10.15
356 2 12.21 12.19 10.14
357 2 14.37 13.7 12.41
358 2 13.95 12.46 11.65
359 2 12.21 12.19 14.66
360 2 13.52 12.17 13.9
361 2 11.3 8.55 14.66
362 2 10.43 7.31 14.66
363 2 10.05 12.53 15.4
364 2 10.05 12.52 13.89
365 2 13.47 8.81 9.39
366 2 13.47 8.8 10.91
367 2 13.48 8.8 13.91
368 2 13.05 10.04 14.67
369 2 9.19 11.01 16.9
370 2 8.31 12.24 16.9
371 2 8.31 12.22 12.39
372 2 9.19 10.99 12.4
373 2 10.48 13.72 10.13
374 2 10.05 12.49 10.88
375 2 10.43 7.29 10.15
376 2 11.3 8.53 10.16
377 2 15.2 8.51 12.41
378 2 14.34 7.26 12.4
379 2 15.2 8.51 16.93
380 2 13.89 8.5 16.17
381 2 13.96 12.5 17.65
382 2 13.95 12.5 16.14
383 2 9.57 8.86 16.15
384 2 9.56 8.86 17.67
ITEM: TIMESTEP
200
ITEM: NUMBER OF ATOMS
384
ITEM: BOX BOUNDS pp pp pp
2.4136573719089505e-01 1.5404311792809107e+01
2.3499875751976607e-01 1.4472146532480238e+01
3.2049711169290340e-01 1.7752539918307097e+01
ITEM: ATOMS id type x y z
1 1 1.41934 1.73704 3.28852
2 1 5.05871 4.39849 1.04565
3 1 6.33011 5.23586 3.25852
4 1 4.95434 4.37668 5.44981
5 1 2.62469 0.712694 5.44499
6 1 2.48228 5.29379 5.4629
7 1 5.05055 1.74845 1.01183
8 1 5.14291 1.59574 5.45949
9 1 1.26797 4.37031 7.59274
10 1 1.31048 4.42647 3.2824
11 1 2.44416 5.26698 1.17845
12 1 2.56049 0.832416 1.13907
13 1 6.26248 0.928292 3.23909
14 1 6.33065 0.754779 7.69264
15 1 6.31279 5.31165 7.60327
16 1 1.47224 1.68227 7.5652
17 1 8.8009 1.79294 3.25123
18 1 12.6428 4.35461 1.03854
19 1 13.9867 5.24934 3.19939
20 1 12.7463 4.39892 5.40021
21 1 10.1264 0.82462 5.38321
22 1 10.1407 5.20456 5.53996
23 1 12.7691 1.71038 1.05334
24 1 12.6677 1.75498 5.4211
25 1 8.8278 4.21803 7.51873
26 1 8.9077 4.44235 3.23531
27 1 10.1901 5.3223 0.996315
28 1 10.192 0.94187 1.07926
29 1 13.9251 0.756558 3.16426
30 1 13.9887 0.861843 7.64412
31 1 13.9444 5.27741 7.64481
32 1 8.83499 1.60845 7.48714
33 1 1.36865 8.7441 3.23851
34 1 5.06817 11.4804 1.15829
35 1 6.29348 12.4214 3.27164
36 1 4.93501 11.4927 5.38179
37 1 2.51157 8.06827 5.44425
38 1 2.3762 12.3201 5.3753
39 1 5.08593 8.90638 1.15336
40 1 5.08256 8.93221 5.40147
41 1 1.32105 11.5539 7.52912
42 1 1.32999 11.4141 3.15642
43 1 2.54415 12.4091 0.973111
44 1 2.60868 7.86452 1.09381
45 1 6.33731 7.95507 3.25704
46 1 6.26484 7.92712 7.48008
47 1 6.27706 12.3307 7.58613
48 1 1.30913 8.88809 7.64878
49 1 8.83983 8.79401 3.29623
50 1 12.7151 11.4024 1.02361
51 1 13.8852 12.3379 3.16686
52 1 12.6993 11.5886 5.41071
53 1 10.0407 7.93764 5.40705
54 1 10.152 12.368 5.35867
55 1 12.6769 8.81233 1.16368
56 1 12.5451 8.80679 5.33303
57 1 8.784 11.4636 7.50905
58 1 8.884 11.4564 3.20723
59 1 10.1055 12.4183 1.12672
60 1 10.0901 7.96527 1.08271
61 1 13.9159 7.99681 3.26572
62 1 13.843 7.98547 7.44872
63 1 14.056 12.4844 7.66593
64 1 8.80189 8.80818 7.5706
65 1 1.2729 1.66175 12.0442
66 1 5.0732 4.37071 9.75722
67 1 6.34511 5.37038 11.895
68 1 5.09667 4.34435 14.025
69 1 2.61778 0.873988 14.2543
70 1 2.64737 5.3496 14.1754
71 1 5.2156 1.71276 9.83956
72 1 5.10573 1.66827 14.197
73 1 1.34099 4.41868 16.3614
74 1 1.35473 4.40699 12.006
75 1 2.5659 5.20595 9.73869
76 1 2.58053 0.901052 9.80189
77 1 6.31658 0.827345 11.9723
78 1 6.34357 0.831765 16.3836
79 1 6.3447 5.34419 16.3545
80 1 1.28396 1.71926 16.3828
81 1 8.85048 1.73198 11.9742
82 1 12.7113 4.40151 9.74425
83 1 13.9683 5.25226 11.9163
84 1 12.7028 4.41851 13.9883
85 1 10.129 0.883037 14.1686
86 1 10.1154 5.19075 14.0741
87 1 12.6549 1.72679 9.72041
88 1 12.6063 1.74994 14.1925
89 1 8.84731 4.42214 16.3457
90 1 8.81257 4.35362 11.8572
91 1 10.2106 5.31783 9.68919
92 1 10.156 0.868858 9.75591
93 1 13.9377 0.811435 11.977
94 1 13.9943 0.870967 16.3718
95 1 13.93 5.2793 16.2537
96 1 8.86375 1.75153 16.3637
97 1 1.21437 8.86243 11.8996
98 1 5.09147 11.5944 9.74504
99 1 6.37874 12.4416 11.9288
100 1 5.141 11.4872 14.1206
101 1 2.54151 7.93977 14.1733
102 1 2.57727 12.4581 14.0254
103 1 4.99782 8.9808 9.64611
104 1 5.08555 8.83936 14.2734
105 1 1.42016 11.4638 16.1901
106 1 1.30535 11.4801 11.909
107 1 2.52535 12.4509 9.79822
108 1 2.5387 7.87573 9.75036
109 1 6.2215 8.03325 11.8953
110 1 6.33668 7.96611 16.4166
111 1 6.30266 12.3811 16.3317
112 1 1.1828 8.79082 16.3101
113 1 8.80892 8.71748 12.0302
114 1 12.6648 11.5707 9.79893
115 1 13.9015 12.4039 11.9999
116 1 12.8135 11.5051 14.1599
117 1 10.0727 7.89196 14.2361
118 1 10.2184 12.4037 14.1775
119 1 12.6737 8.83963 9.76471
120 1 12.5976 8.8572 14.1851
121 1 8.90361 11.6005 16.3276
122 1 8.93104 11.4894 11.9508
123 1 10.1022 12.4454 9.71744
124 1 10.1167 7.94469 9.79412
125 1 13.8068 7.92536 12.022
126 1 13.8931 7.89729 16.3492
127 1 14.0713 12.4113 16.3185
128 1 8.82955 8.8498 16.3788
129 2 0.500759 1.42664 3.4014
130 2 1.5194 2.68719 3.16001
131 2 5.42457 4.81226 1.73482
132 2 5.4745 4.58902 17.6128
133 2 6.0577 4.82529 4.10595
134 2 6.54586 6.31679 3.35433
135 2 3.9865 4.71137 5.35908
136 2 5.53144 4.61515 6.32056
137 2 1.92804 1.15739 4.75455
138 2 3.60112 1.10962 5.44222
139 2 1.9183 5.10133 6.2693
140 2 2.78772 6.17328 5.37004
141 2 5.36432 1.40434 1.80569
142 2 4.97353 2.8409 1.13718
143 2 4.91576 2.5251 5.6599
144 2 5.68726 1.40963 6.46275
145 2 1.84337 4.55117 8.53553
146 2 1.24668 3.37033 7.45635
147 2 1.66186 4.74437 4.15668
148 2 1.75867 4.74731 2.48129
149 2 3.43583 5.02437 1.03922
150 2 2.58032 6.32677 1.20651
151 2 3.60636 1.15159 1.08339
152 2 2.19423 1.19697 1.90759
153 2 5.85903 1.10637 4.21157
154 2 6.14925 14.1926 3.2141
155 2 5.6661 0.942245 8.4034
156 2 6.31578 13.911 7.63988
157 2 7.49883 4.77799 7.43121
158 2 6.34581 6.35046 7.62258
159 2 1.88874 1.41468 6.68995
160 2 0.512015 1.33729 7.73663
161 2 8.85447 2.77814 3.13137
162 2 7.79994 1.56255 3.27689
163 2 12.5848 3.36856 0.935699
164 2 12.9839 4.53366 17.5552
165 2 13.4505 5.04375 2.47339
166 2 14.9149 5.0803 3.28889
167 2 13.1742 4.77089 4.58604
168 2 11.6905 4.83055 5.28611
169 2 10.9391 1.16014 5.40946
170 2 9.54024 1.32824 4.64418
171 2 10.0267 6.35052 5.39725
172 2 9.69681 4.90181 4.77153
173 2 11.6976 1.6316 1.03353
174 2 13.2368 1.31243 1.84091
175 2 12.7454 2.76286 5.27193
176 2 13.1592 1.61687 6.09496
177 2 9.27636 4.46095 6.74776
178 2 8.51688 3.15838 7.50023
179 2 8.03757 4.8517 3.07647
180 2 9.17317 4.88366 2.33845
181 2 9.5612 5.05393 17.6834
182 2 11.124 5.07483 1.03986
183 2 9.64316 1.40919 17.7168
184 2 9.67298 1.51484 1.79376
185 2 13.4649 1.08068 3.92101
186 2 13.9251 13.9868 3.33919
187 2 13.7001 1.29119 8.48851
188 2 13.8172 14.1907 7.89413
189 2 13.6453 4.86031 6.91581
190 2 15.0562 5.0523 7.71968
191 2 7.83891 1.28779 7.32242
192 2 9.44331 1.35767 6.64941
193 2 1.78813 8.56554 4.15331
194 2 1.23113 9.86865 3.07969
195 2 4.05932 11.7357 0.89719
196 2 4.96552 10.5695 0.877808
197 2 7.30802 11.9415 3.11614
198 2 5.82524 12.092 2.46977
199 2 5.64677 11.7518 4.72191
200 2 5.38941 11.7055 6.24442
201 2 1.95012 8.48106 6.10694
202 2 3.56984 8.34327 5.41673
203 2 2.57222 13.3564 5.18327
204 2 3.30483 11.9935 5.46506
205 2 4.28818 8.32346 1.2605
206 2 5.58034 8.52673 0.368781
207 2 5.23307 9.74373 5.30141
208 2 5.44371 8.61148 4.43231
209 2 1.75109 11.6943 6.52243
210 2 1.29212 10.5441 7.57849
211 2 0.290284 11.7924 3.42692
212 2 1.47766 11.8412 3.978
213 2 1.8511 11.9886 1.70145
214 2 2.81517 13.4706 1.26629
215 2 1.9176 8.20622 1.78961
216 2 1.86952 8.21231 0.379453
217 2 7.21786 8.37083 3.27206
218 2 5.78266 8.33681 2.38993
219 2 5.83272 8.19777 6.75871
220 2 7.21019 8.39739 7.45095
221 2 5.72427 12.1118 8.45841
222 2 7.24939 12.0456 7.47135
223 2 0.398944 8.49362 7.39326
224 2 1.76186 8.51099 8.51258
225 2 9.53608 8.41625 4.07943
226 2 9.36411 8.48708 2.41824
227 2 11.8505 11.8994 0.959231
228 2 12.4464 10.3958 1.04502
229 2 13.277 12.0162 2.47013
230 2 13.5241 12.1413 4.06216
231 2 13.2849 12.0416 6.06279
232 2 11.7046 11.7629 5.4337
233 2 10.9806 8.45698 5.44222
234 2 9.75584 8.27775 6.23229
235 2 10.1287 13.4537 5.28698
236 2 9.5879 11.9893 4.63036
237 2 13.2111 8.56555 1.91351
238 2 13.3149 8.54042 0.325857
239 2 13.0065 8.67492 4.39525
240 2 12.4586 9.9018 5.33638
241 2 9.27597 11.7413 8.20448
242 2 9.27221 11.8057 6.66763
243 2 8.81045 10.5034 3.11458
244 2 9.28257 11.6268 2.33536
245 2 10.0543 13.4015 1.01037
246 2 9.71255 12.1424 17.7071
247 2 11.0659 8.35251 1.33305
248 2 10.3357 6.98525 1.14722
249 2 14.9149 8.28872 3.2483
250 2 13.9409 7.07136 3.05997
251 2 13.7625 7.03842 7.30149
252 2 13.3249 8.37007 6.63677
253 2 15.083 12.2628 7.70883
254 2 13.7784 12.0639 8.35377
255 2 8.80062 9.92069 7.47833
256 2 9.17956 8.39121 8.34752
257 2 1.75728 1.44895 11.2474
258 2 0.398652 1.34287 12.0206
259 2 5.66007 4.73309 10.6111
260 2 5.36115 4.94512 9.01478
261 2 6.00612 6.32174 12.0488
262 2 5.69934 4.88429 12.8308
263 2 4.14151 4.4434 14.018
264 2 5.05853 3.4149 14.1082
265 2 2.11183 1.46129 13.5869
266 2 2.07748 1.02803 15.1103
267 2 2.29317 5.01508 14.9324
268 2 2.60843 6.39343 14.1851
269 2 4.23702 1.44305 9.77129
270 2 5.2615 2.59692 9.59737
271 2 4.10329 1.34016 14.1337
272 2 5.61649 1.42202 15.1002
273 2 1.66679 4.6656 17.3053
274 2 1.16204 3.5049 16.37
275 2 2.01392 4.63248 12.8335
276 2 1.63402 3.26424 12.107
277 2 2.0412 4.82125 10.5368
278 2 3.571 5.05198 9.80727
279 2 2.04889 1.21244 9.02371
280 2 2.62915 14.1449 9.90573
281 2 5.6928 0.946615 11.1251
282 2 5.96482 0.930182 12.9511
283 2 6.49784 13.9229 16.3961
284 2 5.93426 1.19438 17.0976
285 2 7.2505 4.8678 16.1652
286 2 5.89168 5.01154 15.4624
287 2 15.3294 1.38986 16.5242
288 2 1.84514 1.53411 17.2568
289 2 7.87548 1.27136 12.1074
290 2 8.7472 2.67797 11.8676
291 2 13.3003 4.80439 8.95065
292 2 12.9757 4.8754 10.6149
293 2 14.9745 5.31043 11.88
294 2 13.7238 4.98275 12.6572
295 2 13.2419 4.64301 14.7352
296 2 12.7221 3.36664 14.0569
297 2 10.296 14.1702 14.2671
298 2 9.71178 1.26643 13.3533
299 2 11.0675 4.98227 14.0512
300 2 9.74703 4.99177 13.1501
301 2 12.6146 2.8346 9.86925
302 2 11.8482 1.22683 9.81194
303 2 13.059 1.41998 14.9135
304 2 11.5509 1.40485 14.0816
305 2 8.81536 3.47434 16.5542
306 2 9.13112 4.68398 15.3235
307 2 9.07542 4.84399 11.0042
308 2 7.86022 4.69393 11.9977
309 2 10.0191 5.03192 8.78838
310 2 11.1146 4.97797 9.79818
311 2 9.80085 1.28735 10.4959
312 2 9.72414 1.31238 8.95001
313 2 13.2795 0.964356 11.0517
314 2 13.3514 1.13508 12.756
315 2 13.5659 1.12901 17.0712
316 2 14.0485 14.137 16.3955
317 2 13.7418 6.23509 16.2627
318 2 15.0217 5.02751 16.2433
319 2 8.00238 1.31615 16.1565
320 2 9.54038 1.38593 15.5826
321 2 1.54068 8.56504 10.9739
322 2 1.05192 10.033 11.8643
323 2 5.51554 12.0193 10.6656
324 2 4.14581 12.0065 9.8045
325 2 5.83555 12.2795 12.817
326 2 6.42895 13.3428 12.0374
327 2 4.15628 11.9321 14.1547
328 2 4.89607 10.6106 14.1649
329 2 3.4769 8.4408 14.195
330 2 1.99456 8.45085 13.4515
331 2 2.59581 13.5053 14.061
332 2 1.98111 12.0224 14.7745
333 2 4.93379 9.90957 9.77096
334 2 5.6204 8.59585 9.04111
335 2 5.5971 8.57087 13.4775
336 2 5.82704 8.57736 15.119
337 2 0.582799 11.5912 16.182
338 2 1.8273 12.0774 16.992
339 2 0.3046 11.7256 11.9124
340 2 1.78172 11.792 12.71
341 2 2.11226 12.0381 8.96106
342 2 2.26204 11.9945 10.6888
343 2 2.52583 6.92087 9.8156
344 2 3.36542 8.24242 9.71351
345 2 7.23058 8.46997 11.7916
346 2 5.68782 8.59813 11.1909
347 2 6.35528 6.83453 16.4146
348 2 7.19499 8.2697 16.6501
349 2 6.07529 12.0831 17.2387
350 2 5.7681 11.7783 15.5335
351 2 1.85787 8.72101 15.579
352 2 1.3781 9.80648 16.2886
353 2 9.21721 8.32289 12.897
354 2 9.25493 8.3707 11.343
355 2 12.4145 10.5752 10.0889
356 2 11.6887 11.8002 9.58903
357 2 14.0036 13.3591 12.0624
358 2 13.5889 12.1154 11.0979
359 2 11.7843 11.7327 14.0843
360 2 13.1926 11.7209 13.3376
361 2 10.9237 8.31374 14.2296
362 2 10.1708 6.95009 14.2876
363 2 9.84985 12.071 15.0931
364 2 9.92915 11.8695 13.5366
365 2 12.9941 8.59833 8.883
366 2 13.2076 8.45244 10.6426
367 2 13.0674 8.56183 13.317
368 2 12.5674 9.85839 14.2138
369 2 8.75417 10.4324 16.1861
370 2 8.02025 11.88 16.366
371 2 7.92279 11.612 11.8893
372 2 8.8279 10.4928 11.9548
373 2 10.1352 13.3171 9.84037
374 2 9.5973 12.044 10.4775
375 2 10.2928 6.9851 9.71645
376 2 10.9958 8.31728 9.7068
377 2 14.7271 8.26912 11.792
378 2 13.9566 6.87122 12.1529
379 2 14.7162 8.18949 16.4003
380 2 13.4348 8.22896 15.6693
381 2 13.5657 11.9379 17.2126
382 2 13.5566 12.0733 15.7122
383 2 9.36642 8.58056 15.4946
384 2 9.46551 8.40446 17.1254
ITEM: TIMESTEP
400
ITEM: NUMBER OF ATOMS
384
ITEM: BOX BOUNDS pp pp pp
4.6654049692420863e-01 1.5179137033075790e+01
4.3348055518130035e-01 1.4273664734818711e+01
6.2313843955395143e-01 1.7449898590446061e+01
ITEM: ATOMS id type x y z
1 1 1.39322 1.66825 3.28811
2 1 5.01652 4.44709 1.08954
3 1 6.24254 5.12761 3.25468
4 1 4.84309 4.14773 5.10191
5 1 2.5329 0.475758 5.29031
6 1 2.52112 5.18522 5.32057
7 1 4.8778 1.74658 1.26353
8 1 4.99353 1.6025 5.2412
9 1 1.26807 4.33215 7.38393
10 1 1.25829 4.31774 3.12208
11 1 2.48793 5.07646 1.04458
12 1 2.46514 0.96087 1.05143
13 1 6.20472 0.846549 3.21459
14 1 6.24991 0.761061 7.33444
15 1 6.10963 5.09704 7.15689
16 1 1.42532 1.67122 7.32684
17 1 8.53904 1.75128 3.15253
18 1 12.1792 4.16883 0.784211
19 1 13.4035 4.97607 2.96594
20 1 12.2097 4.12116 5.07779
21 1 9.87794 0.696066 5.10759
22 1 9.82733 5.09904 5.27854
23 1 12.2546 1.54879 0.985899
24 1 12.4003 1.57105 5.26933
25 1 8.58885 4.11127 7.31105
26 1 8.68186 4.39067 3.08683
27 1 9.90131 5.28963 0.882872
28 1 9.75938 0.89103 1.08084
29 1 13.6874 0.967933 3.13835
30 1 13.6495 0.84836 7.4668
31 1 13.5016 5.20178 7.11446
32 1 8.78546 1.50896 7.30157
33 1 1.31574 8.48814 3.12462
34 1 4.99111 11.1098 1.04433
35 1 6.23431 12.0882 3.02611
36 1 4.92247 11.2924 5.14102
37 1 2.46552 7.75743 5.29935
38 1 2.34759 11.855 5.25348
39 1 4.77893 8.56546 1.09471
40 1 4.88805 8.55749 5.11515
41 1 1.20917 11.0564 7.34013
42 1 1.23501 11.181 3.08722
43 1 2.54611 12.1977 1.05134
44 1 2.37551 7.62831 0.986188
45 1 6.24587 7.74528 3.0341
46 1 6.06165 7.80734 7.30932
47 1 6.0676 12.0314 7.35884
48 1 1.16526 8.47733 7.33912
49 1 8.72609 8.52664 3.14644
50 1 12.2802 11.1877 1.08955
51 1 13.4989 12.166 3.0836
52 1 12.2626 11.3333 5.24671
53 1 9.87954 7.64568 5.29
54 1 9.84253 12.0463 5.24428
55 1 12.3986 8.60131 1.07495
56 1 12.2379 8.74972 5.09102
57 1 8.44783 11.1423 7.33177
58 1 8.66484 11.196 3.11754
59 1 9.89438 12.1208 1.00173
60 1 9.90176 7.73722 1.01632
61 1 13.5013 7.66369 3.15384
62 1 13.3681 7.87271 7.26595
63 1 13.4927 12.117 7.52917
64 1 8.45448 8.63602 7.27612
65 1 1.40202 1.60358 11.6171
66 1 4.98012 4.30187 9.38217
67 1 6.25399 5.19075 11.5425
68 1 4.9924 4.48628 13.6229
69 1 2.52454 0.782671 13.6958
70 1 2.48456 5.19689 13.6982
71 1 4.999 1.66341 9.61452
72 1 4.9606 1.83513 13.8213
73 1 1.14429 4.30949 15.7146
74 1 1.35408 4.2325 11.6703
75 1 2.50494 5.10848 9.58025
76 1 2.558 0.808253 9.48707
77 1 6.15544 0.808971 11.755
78 1 6.02028 0.785884 15.8721
79 1 6.33765 5.15062 15.7574
80 1 1.22128 1.6778 15.7356
81 1 8.48385 1.72687 11.5511
82 1 12.3417 4.31019 9.41198
83 1 13.5406 5.0732 11.6166
84 1 12.218 4.15851 13.5244
85 1 9.73633 0.830273 13.558
86 1 9.74287 4.97566 13.4601
87 1 12.2768 1.74286 9.54618
88 1 12.2587 1.53368 13.7919
89 1 8.74622 4.09937 15.644
90 1 8.53394 4.29087 11.3235
91 1 9.87205 5.17859 9.26827
92 1 9.94307 0.70196 9.52296
93 1 13.6431 0.879415 11.544
94 1 13.6076 0.612102 15.9223
95 1 13.4374 5.1711 15.5588
96 1 8.56722 1.51338 15.7369
97 1 1.22455 8.71583 11.5689
98 1 4.87918 11.2384 9.52873
99 1 6.18512 11.9539 11.6829
100 1 4.88215 11.2431 13.7353
101 1 2.41306 7.81924 13.5844
102 1 2.37477 11.9788 13.5979
103 1 4.72278 8.61855 9.42476
104 1 4.66806 8.66037 13.7452
105 1 1.34841 11.0222 15.7558
106 1 1.26043 11.3741 11.5234
107 1 2.46812 12.1179 9.40681
108 1 2.3475 7.64266 9.45179
109 1 6.0573 7.88979 11.4638
110 1 6.09727 7.74797 15.7679
111 1 6.19542 12.0659 15.7942
112 1 1.22449 8.55415 15.7445
113 1 8.66344 8.59963 11.4624
114 1 12.1826 11.2156 9.4646
115 1 13.466 12.2616 11.4647
116 1 12.2035 11.3137 13.5217
117 1 9.76796 7.62864 13.6855
118 1 9.759 12.0808 13.464
119 1 12.2201 8.61293 9.46334
120 1 12.2001 8.63358 13.6372
121 1 8.5952 11.2726 15.8162
122 1 8.54698 11.1065 11.473
123 1 9.69097 12.0146 9.41495
124 1 9.82652 7.73241 9.4176
125 1 13.4615 7.64622 11.516
126 1 13.5465 7.75 15.6841
127 1 13.538 11.7918 15.764
128 1 8.56262 8.60192 15.7276
129 2 0.484424 1.48465 3.53934
130 2 1.27122 2.64202 3.11823
131 2 5.58472 4.75129 1.83343
132 2 5.67006 4.65703 17.159
133 2 5.83693 4.73253 4.05019
134 2 6.21349 6.14744 3.15718
135 2 3.95209 4.52401 5.08411
136 2 5.38423 4.4723 5.96549
137 2 2.01081 1.04934 4.50286
138 2 3.31584 0.872683 5.13212
139 2 2.01032 4.94921 6.01024
140 2 2.38817 6.22771 5.21402
141 2 5.61497 1.50579 2.12215
142 2 5.03592 2.70328 1.18894
143 2 4.67005 2.57565 5.2449
144 2 5.38371 1.32893 6.23925
145 2 1.65115 4.57664 8.17442
146 2 1.11848 3.372 7.34727
147 2 1.58515 4.68802 3.93197
148 2 1.65994 4.79381 2.33997
149 2 3.56974 4.91949 1.06212
150 2 2.37346 6.00581 1.03715
151 2 3.416 1.46974 1.0381
152 2 2.06086 1.22804 1.91479
153 2 5.67705 1.07842 4.22359
154 2 6.22094 13.7398 3.16403
155 2 5.8926 1.18112 8.28967
156 2 6.1142 13.6403 7.44606
157 2 7.05487 4.61441 7.16642
158 2 6.14493 5.99057 7.3465
159 2 1.79448 1.43242 6.40958
160 2 15.1773 1.51836 7.40313
161 2 8.43717 2.65136 3.16976
162 2 7.50169 1.39379 3.02661
163 2 12.0999 3.13684 0.636654
164 2 12.663 4.54599 16.7741
165 2 12.9755 4.91233 2.01395
166 2 14.2729 4.60359 2.7692
167 2 12.5668 4.36992 4.11792
168 2 11.3713 4.64746 5.05294
169 2 10.8211 1.02477 5.30426
170 2 9.35241 1.22042 4.37256
171 2 9.76167 6.07091 5.39558
172 2 9.34485 4.88626 4.30987
173 2 11.3714 1.23455 1.15936
174 2 12.6919 1.27241 1.87185
175 2 12.2728 2.60946 5.3243
176 2 12.8893 1.24884 6.05861
177 2 8.866 4.48555 6.57261
178 2 8.80874 3.17469 7.26256
179 2 7.62343 4.45954 3.1999
180 2 9.1824 4.67026 2.17361
181 2 9.4965 4.85864 16.8772
182 2 10.7932 4.80803 0.936794
183 2 9.15655 1.35832 17.1164
184 2 9.42224 1.11016 1.97458
185 2 13.0722 1.39595 3.82601
186 2 13.6242 13.7799 3.17316
187 2 13.0068 1.1791 8.18168
188 2 13.6512 13.6747 7.59561
189 2 13.0886 4.52619 6.33497
190 2 14.4054 4.91303 7.59362
191 2 7.86109 1.21711 7.37953
192 2 9.29059 1.1739 6.4002
193 2 1.81831 8.18518 3.91344
194 2 1.38757 9.48349 3.49232
195 2 3.98372 11.6056 1.13642
196 2 4.86001 10.1005 1.24217
197 2 7.14846 11.7895 3.03528
198 2 5.77472 11.6953 2.16035
199 2 5.47723 11.5471 4.47811
200 2 5.26658 11.5062 5.98946
201 2 2.03564 8.28927 6.14172
202 2 3.35582 8.05233 5.40632
203 2 2.39741 12.8239 5.28987
204 2 3.4 11.8025 5.12632
205 2 3.8226 8.33424 0.971595
206 2 5.24271 8.43768 17.0564
207 2 4.95064 9.63767 5.17447
208 2 5.45253 8.31919 4.26777
209 2 1.77562 11.1876 6.56878
210 2 1.10409 10.118 7.48036
211 2 15.0312 11.5377 3.13415
212 2 1.82911 11.2867 3.81223
213 2 2.1105 11.9648 1.91158
214 2 2.55364 13.258 1.12716
215 2 1.79087 7.97939 1.72719
216 2 1.95072 7.99443 17.0553
217 2 7.26469 7.70957 2.96444
218 2 5.80431 8.05145 2.22827
219 2 5.71988 8.0381 6.29041
220 2 7.10813 8.17235 7.27837
221 2 5.44374 11.7753 8.05307
222 2 7.04399 11.7055 7.3231
223 2 14.9267 8.26711 7.39202
224 2 1.20681 8.27586 8.36574
225 2 9.0634 8.25272 3.96552
226 2 9.29665 8.19502 2.39892
227 2 11.3429 11.653 1.03193
228 2 12.0267 10.1792 0.918655
229 2 13.0413 11.778 2.18679
230 2 13.0132 11.9451 3.96398
231 2 12.8317 11.8068 5.92981
232 2 11.2407 11.4645 5.37278
233 2 10.7458 8.14199 5.39854
234 2 9.24362 8.10152 6.00802
235 2 9.82519 12.9521 5.07707
236 2 9.48311 11.7404 4.39065
237 2 12.8307 8.27692 1.92221
238 2 12.8428 8.29501 17.0898
239 2 12.4402 8.36585 4.1815
240 2 12.1176 9.7922 5.16257
241 2 8.95334 11.4286 8.22122
242 2 9.18667 11.5315 6.40313
243 2 8.70331 10.0986 2.93093
244 2 9.16158 11.5162 2.24326
245 2 9.8953 13.1416 0.736968
246 2 9.64098 11.713 16.844
247 2 10.6372 8.17012 1.1528
248 2 9.91068 6.50886 0.83376
249 2 14.6247 8.02712 3.29686
250 2 13.5119 6.65149 3.14852
251 2 13.2624 6.69391 7.05131
252 2 12.7652 8.21239 6.60242
253 2 14.5123 11.5564 7.30833
254 2 12.9689 11.5238 8.25897
255 2 8.5761 9.83817 7.45433
256 2 8.866 8.32524 8.01688
257 2 1.98598 1.37621 10.7621
258 2 15.0655 1.21426 11.6828
259 2 5.40623 4.60609 10.2082
260 2 5.35207 4.62125 8.58891
261 2 6.12444 6.26822 11.4667
262 2 5.74445 5.00672 12.4065
263 2 4.06825 4.60267 13.6673
264 2 5.00492 3.50998 13.8008
265 2 2.41444 1.18971 12.8395
266 2 1.97843 1.20695 14.4737
267 2 1.91335 5.01455 14.6374
268 2 2.58628 6.31113 13.7361
269 2 4.16778 1.21476 9.51709
270 2 4.90554 2.69125 9.4399
271 2 3.85485 1.54333 13.7303
272 2 5.18754 1.4178 14.7354
273 2 1.58344 4.47585 16.4747
274 2 1.03796 3.3471 15.7061
275 2 1.89067 4.39862 12.4974
276 2 1.42853 3.08949 11.4781
277 2 1.91128 4.94143 10.2385
278 2 3.40962 4.71179 9.49906
279 2 2.16929 0.994189 8.53238
280 2 2.6631 13.6634 9.45249
281 2 5.69011 1.03394 11.0708
282 2 5.66414 1.07354 12.4132
283 2 6.01448 13.574 15.7865
284 2 5.46489 1.10296 16.5791
285 2 7.12668 4.75711 15.6693
286 2 5.75851 4.84596 14.9725
287 2 15.0041 0.870558 15.7151
288 2 1.5781 1.30969 16.583
289 2 7.53912 1.46785 11.7045
290 2 8.67913 2.63242 11.4852
291 2 12.8603 4.72122 8.64212
292 2 12.9081 4.61464 10.2437
293 2 14.5567 4.4714 11.7633
294 2 13.0294 4.62364 12.2432
295 2 12.881 4.58208 14.3178
296 2 12.1296 3.13959 13.8497
297 2 9.66167 13.5829 13.4756
298 2 9.26351 1.08603 12.7543
299 2 10.7195 4.52187 13.307
300 2 9.24168 4.82818 12.521
301 2 12.0338 2.60939 9.59301
302 2 11.2494 1.47607 9.81315
303 2 12.5976 1.04212 14.4327
304 2 11.2903 1.27158 13.7922
305 2 8.66014 3.06574 15.566
306 2 8.99195 4.42899 14.7627
307 2 8.84538 4.78044 10.5997
308 2 7.71472 4.73384 11.4713
309 2 9.53845 4.91533 8.43249
310 2 10.932 4.99228 9.22634
311 2 9.50258 1.20718 10.5427
312 2 9.51776 0.900413 8.77783
313 2 13.1927 1.21174 10.6481
314 2 13.0469 1.04544 12.2981
315 2 13.1425 1.18458 16.8776
316 2 13.3624 13.5059 16.1203
317 2 13.4201 6.15948 15.3672
318 2 14.3837 4.87964 15.544
319 2 7.72153 1.27328 15.5842
320 2 9.16482 1.16532 14.8421
321 2 1.77458 8.22147 10.8246
322 2 1.44863 9.86721 11.5936
323 2 5.24462 11.595 10.3914
324 2 3.90073 11.3439 9.56689
325 2 5.54891 11.5459 12.4094
326 2 6.07562 12.9285 11.7345
327 2 3.92687 11.4277 13.5519
328 2 4.87173 10.2587 13.8319
329 2 3.33631 8.14919 13.7849