ITEM: TIMESTEP
0
ITEM: NUMBER OF ATOMS
384
ITEM: BOX BOUNDS pp pp pp
0.0000000000000000e+00 1.5645677530000000e+01
0.0000000000000000e+00 1.4707145290000000e+01
0.0000000000000000e+00 1.8073037029999998e+01
ITEM: ATOMS id type x y z
1 1 1.38 1.76 3.37
2 1 5.2 4.47 1.11
3 1 6.59 5.39 3.31
4 1 5.28 4.49 5.56
5 1 2.59 0.84 5.67
6 1 2.69 5.43 5.56
7 1 5.2 1.71 1.07
8 1 5.2 1.73 5.58
9 1 1.32 4.61 7.82
10 1 1.3 4.52 3.36
11 1 2.61 5.41 1.1
12 1 2.59 0.82 1.07
13 1 6.54 0.87 3.33
14 1 6.54 0.88 7.83
15 1 6.51 5.4 7.86
16 1 1.35 1.85 7.92
17 1 9.2 1.76 3.37
18 1 13.05 4.55 1.15
19 1 14.35 5.46 3.4
20 1 13.1 4.49 5.66
21 1 10.41 0.84 5.67
22 1 10.51 5.43 5.65
23 1 13.07 1.79 1.07
24 1 13.02 1.73 5.58
25 1 9.15 4.61 7.91
26 1 9.2 4.52 3.4
27 1 10.45 5.49 1.15
28 1 10.49 0.82 1.12
29 1 14.36 0.87 3.33
30 1 14.36 0.88 7.83
31 1 14.36 5.48 7.9
32 1 9.17 1.85 7.92
33 1 1.3 9.11 3.32
34 1 5.3 11.9 1.11
35 1 6.53 12.81 3.4
36 1 5.2 11.84 5.61
37 1 2.59 8.19 5.58
38 1 2.61 12.79 5.61
39 1 5.25 9.14 1.16
40 1 5.2 9.08 5.67
41 1 1.32 11.96 7.91
42 1 1.38 11.87 3.31
43 1 2.69 12.77 1.06
44 1 2.67 8.17 1.12
45 1 6.49 8.14 3.42
46 1 6.49 8.16 7.92
47 1 6.53 12.83 7.81
48 1 1.35 9.21 7.83
49 1 9.09 9.19 3.37
50 1 13.13 11.9 1.11
51 1 14.44 12.82 3.35
52 1 13.1 11.84 5.56
53 1 10.41 8.19 5.58
54 1 10.51 12.79 5.65
55 1 12.99 9.14 1.12
56 1 13.02 9.08 5.67
57 1 9.12 11.89 7.86
58 1 9.15 11.95 3.4
59 1 10.51 12.77 1.15
60 1 10.38 8.25 1.12
61 1 14.29 8.22 3.37
62 1 14.36 8.24 7.92
63 1 14.36 12.83 7.81
64 1 9.12 9.13 7.83
65 1 1.35 1.83 12.45
66 1 5.2 4.47 10.14
67 1 6.59 5.39 12.34
68 1 5.3 4.56 14.65
69 1 2.67 0.84 14.66
70 1 2.69 5.43 14.6
71 1 5.28 1.71 10.15
72 1 5.25 1.81 14.61
73 1 1.32 4.61 16.85
74 1 1.32 4.59 12.35
75 1 2.63 5.49 10.09
76 1 2.64 0.89 10.2
77 1 6.57 0.79 12.41
78 1 6.54 0.88 16.87
79 1 6.53 5.48 16.94
80 1 1.35 1.85 16.86
81 1 9.2 1.76 12.41
82 1 13.02 4.47 10.14
83 1 14.35 5.46 12.34
84 1 13.05 4.57 14.6
85 1 10.46 0.91 14.71
86 1 10.46 5.51 14.69
87 1 13.1 1.71 10.15
88 1 13.07 1.81 14.61
89 1 9.15 4.61 16.94
90 1 9.2 4.52 12.44
91 1 10.45 5.49 10.18
92 1 10.49 0.82 10.16
93 1 14.39 0.79 12.41
94 1 14.36 0.88 16.87
95 1 14.33 5.4 16.89
96 1 9.17 1.85 16.96
97 1 1.3 9.11 12.45
98 1 5.28 11.83 10.1
99 1 6.59 12.74 12.34
100 1 5.3 11.92 14.65
101 1 2.59 8.19 14.71
102 1 2.69 12.79 14.6
103 1 5.2 9.07 10.2
104 1 5.17 9.16 14.66
105 1 1.38 11.89 16.85
106 1 1.38 11.87 12.35
107 1 2.71 12.84 10.14
108 1 2.56 8.25 10.16
109 1 6.49 8.14 12.46
110 1 6.46 8.24 16.91
111 1 6.61 12.83 16.89
112 1 1.3 9.13 16.96
113 1 9.09 9.19 12.41
114 1 13.13 11.9 10.14
115 1 14.41 12.74 12.44
116 1 13.1 11.84 14.69
117 1 10.38 8.27 14.66
118 1 10.53 12.86 14.64
119 1 12.99 9.14 10.15
120 1 13.02 9.08 14.7
121 1 9.23 11.96 16.9
122 1 9.23 11.95 12.39
123 1 10.51 12.77 10.09
124 1 10.38 8.25 10.16
125 1 14.29 8.22 12.41
126 1 14.31 8.16 16.96
127 1 14.44 12.83 16.89
128 1 9.09 9.21 16.91
129 2 0.46 1.48 3.37
130 2 1.33 2.71 3.37
131 2 5.68 4.81 1.86
132 2 5.67 4.81 0.35
133 2 6.13 5.1 4.1
134 2 6.56 6.34 3.34
135 2 4.38 4.84 5.6
136 2 5.7 4.83 6.36
137 2 2.17 1.18 4.88
138 2 3.49 1.17 5.63
139 2 2.23 5.15 6.35
140 2 2.65 6.39 5.59
141 2 5.65 1.43 1.86
142 2 5.23 2.67 1.1
143 2 5.23 2.69 5.61
144 2 5.65 1.45 6.37
145 2 1.78 4.88 8.61
146 2 1.33 3.65 7.85
147 2 1.78 4.85 4.11
148 2 1.78 4.85 2.6
149 2 3.52 5.14 1.1
150 2 2.64 6.37 1.11
151 2 3.49 1.15 1.11
152 2 2.17 1.16 1.87
153 2 6.09 1.14 4.12
154 2 6.53 14.6171 3.37
155 2 6.09 1.15 8.63
156 2 6.53 14.6371 7.86
157 2 7.43 5.14 7.86
158 2 6.53 6.36 7.86
159 2 1.77 1.51 7.13
160 2 0.46 1.51 7.89
161 2 9.16 2.71 3.37
162 2 8.28 1.48 3.37
163 2 13.06 3.59 1.12
164 2 13.5 4.82 0.36
165 2 13.94 5.12 2.61
166 2 15.25 5.14 3.36
167 2 13.52 4.82 4.86
168 2 12.21 4.84 5.62
169 2 11.31 1.17 5.63
170 2 10 1.18 4.88
171 2 10.47 6.39 5.62
172 2 10.05 5.15 4.86
173 2 12.18 1.46 1.11
174 2 13.49 1.45 1.86
175 2 13.05 2.69 5.61
176 2 13.48 1.45 6.37
177 2 9.61 4.88 7.11
178 2 9.16 3.65 7.88
179 2 8.3 4.84 3.36
180 2 9.61 4.85 2.61
181 2 10.04 5.17 0.35
182 2 11.35 5.14 1.11
183 2 10.02 1.16 0.36
184 2 10.02 1.16 1.88
185 2 13.91 1.14 4.12
186 2 14.35 14.6171 3.37
187 2 13.91 1.15 8.63
188 2 14.36 14.6371 7.86
189 2 13.94 5.14 7.11
190 2 15.26 5.16 7.86
191 2 8.28 1.51 7.89
192 2 9.59 1.51 7.13
193 2 1.75 8.83 4.12
194 2 1.33 10.07 3.36
195 2 4.39 12.19 1.1
196 2 5.25 10.94 1.11
197 2 7.43 12.49 3.36
198 2 6.12 12.48 2.61
199 2 5.68 12.17 4.85
200 2 5.68 12.18 6.37
201 2 2.17 8.54 6.37
202 2 3.49 8.52 5.61
203 2 2.64 13.74 5.61
204 2 3.52 12.51 5.61
205 2 4.35 8.81 1.13
206 2 5.66 8.81 0.36
207 2 5.23 10.04 5.63
208 2 5.65 8.8 4.88
209 2 1.78 12.24 7.11
210 2 1.34 11.01 7.88
211 2 0.48 12.2 3.35
212 2 1.79 12.21 4.11
213 2 2.23 12.49 1.85
214 2 2.65 13.72 1.09
215 2 2.19 8.52 1.88
216 2 2.2 8.52 0.36
217 2 7.38 8.49 3.39
218 2 6.07 8.48 2.63
219 2 6.07 8.5 7.13
220 2 7.38 8.51 7.89
221 2 6.12 12.49 8.61
222 2 7.43 12.51 7.85
223 2 0.46 8.86 7.86
224 2 1.77 8.86 8.62
225 2 9.57 8.85 4.13
226 2 9.57 8.84 2.61
227 2 12.21 12.19 1.1
228 2 13.08 10.94 1.11
229 2 13.95 12.48 2.6
230 2 13.95 12.48 4.11
231 2 13.52 12.18 6.36
232 2 12.21 12.19 5.6
233 2 11.31 8.52 5.61
234 2 10 8.54 6.37
235 2 10.47 13.74 5.62
236 2 10.05 12.51 4.86
237 2 13.47 8.8 1.87
238 2 13.47 8.81 0.36
239 2 13.48 8.8 4.88
240 2 13.05 10.04 5.63
241 2 9.6 12.22 8.62
242 2 9.6 12.22 7.11
243 2 9.16 10.99 3.37
244 2 9.61 12.22 2.61
245 2 10.48 13.72 1.13
246 2 10.05 12.49 0.35
247 2 11.3 8.53 1.12
248 2 10.43 7.29 1.11
249 2 15.2 8.51 3.37
250 2 14.34 7.26 3.37
251 2 14.36 7.28 7.88
252 2 13.91 8.52 7.13
253 2 15.26 12.51 7.85
254 2 13.94 12.49 8.61
255 2 9.15 10.09 7.86
256 2 9.57 8.85 8.62
257 2 1.77 1.49 11.66
258 2 0.46 1.49 12.42
259 2 5.68 4.81 10.9
260 2 5.67 4.81 9.38
261 2 6.56 6.34 12.38
262 2 6.13 5.1 13.14
263 2 4.39 4.85 14.65
264 2 5.25 3.61 14.65
265 2 2.19 1.18 13.9
266 2 2.19 1.18 15.42
267 2 2.23 5.15 15.39
268 2 2.65 6.39 14.63
269 2 4.36 1.44 10.15
270 2 5.24 2.67 10.15
271 2 4.35 1.48 14.65
272 2 5.66 1.47 15.41
273 2 1.78 4.88 17.65
274 2 1.33 3.65 16.89
275 2 1.78 4.87 13.14
276 2 1.34 3.64 12.39
277 2 2.21 5.16 10.89
278 2 3.52 5.14 10.13
279 2 2.19 1.18 9.41
280 2 2.63 14.6471 10.16
281 2 6.09 1.13 11.65
282 2 6.09 1.14 13.17
283 2 6.53 14.6371 16.9
284 2 6.09 1.15 17.67
285 2 7.43 5.16 16.9
286 2 6.12 5.14 16.15
287 2 0.46 1.51 16.89
288 2 1.77 1.51 17.66
289 2 8.28 1.48 12.41
290 2 9.16 2.71 12.4
291 2 13.5 4.81 9.38
292 2 13.5 4.81 10.9
293 2 15.25 5.14 12.39
294 2 13.94 5.13 13.14
295 2 13.51 4.84 15.39
296 2 13.06 3.61 14.64
297 2 10.46 14.6671 14.67
298 2 10.01 1.19 13.91
299 2 11.35 5.16 14.65
300 2 10.04 5.17 13.9
301 2 13.07 2.67 10.15
302 2 12.18 1.44 10.15
303 2 13.49 1.47 15.41
304 2 12.18 1.48 14.65
305 2 9.16 3.65 16.91
306 2 9.61 4.88 16.15
307 2 9.61 4.85 11.64
308 2 8.3 4.84 12.4
309 2 10.04 5.17 9.39
310 2 11.35 5.14 10.15
311 2 10.02 1.16 10.91
312 2 10.02 1.16 9.4
313 2 13.92 1.13 11.65
314 2 13.92 1.14 13.17
315 2 13.91 1.15 17.67
316 2 14.36 14.6371 16.9
317 2 14.36 6.36 16.9
318 2 15.25 5.14 16.9
319 2 8.28 1.51 16.93
320 2 9.59 1.51 16.17
321 2 1.75 8.83 11.66
322 2 1.33 10.07 12.41
323 2 5.7 12.16 10.89
324 2 4.38 12.17 10.13
325 2 6.13 12.46 13.14
326 2 6.56 13.7 12.38
327 2 4.39 12.21 14.65
328 2 5.25 10.96 14.65
329 2 3.49 8.52 14.67
330 2 2.17 8.53 13.91
331 2 2.65 13.74 14.63
332 2 2.23 12.5 15.39
333 2 5.22 10.02 10.17
334 2 5.65 8.79 9.4
335 2 5.65 8.81 13.9
336 2 5.65 8.82 15.42
337 2 0.48 12.22 16.89
338 2 1.79 12.22 17.65
339 2 0.48 12.2 12.39
340 2 1.79 12.21 13.14
341 2 2.23 12.52 9.38
342 2 2.23 12.51 10.89
343 2 2.61 7.29 10.15
344 2 3.48 8.53 10.16
345 2 7.38 8.49 12.42
346 2 6.07 8.48 11.66
347 2 6.52 7.28 16.91
348 2 7.37 8.53 16.91
349 2 6.14 12.5 17.65
350 2 6.13 12.5 16.14
351 2 1.75 8.84 16.16
352 2 1.33 10.09 16.92
353 2 9.57 8.85 13.16
354 2 9.57 8.84 11.65
355 2 13.08 10.94 10.15
356 2 12.21 12.19 10.14
357 2 14.37 13.7 12.41
358 2 13.95 12.46 11.65
359 2 12.21 12.19 14.66
360 2 13.52 12.17 13.9
361 2 11.3 8.55 14.66
362 2 10.43 7.31 14.66
363 2 10.05 12.53 15.4
364 2 10.05 12.52 13.89
365 2 13.47 8.81 9.39
366 2 13.47 8.8 10.91
367 2 13.48 8.8 13.91
368 2 13.05 10.04 14.67
369 2 9.19 11.01 16.9
370 2 8.31 12.24 16.9
371 2 8.31 12.22 12.39
372 2 9.19 10.99 12.4
373 2 10.48 13.72 10.13
374 2 10.05 12.49 10.88
375 2 10.43 7.29 10.15
376 2 11.3 8.53 10.16
377 2 15.2 8.51 12.41
378 2 14.34 7.26 12.4
379 2 15.2 8.51 16.93
380 2 13.89 8.5 16.17
381 2 13.96 12.5 17.65
382 2 13.95 12.5 16.14
383 2 9.57 8.86 16.15
384 2 9.56 8.86 17.67
ITEM: TIMESTEP
200
ITEM: NUMBER OF ATOMS
384
ITEM: BOX BOUNDS pp pp pp
2.4136573719089505e-01 1.5404311792809107e+01
2.3499875751976607e-01 1.4472146532480238e+01
3.2049711169290340e-01 1.7752539918307097e+01
ITEM: ATOMS id type x y z
1 1 1.42514 1.74019 3.31565
2 1 5.02846 4.40774 1.06584
3 1 6.33627 5.25113 3.23848
4 1 4.95105 4.38492 5.46282
5 1 2.59246 0.710512 5.45218
6 1 2.42961 5.26911 5.45391
7 1 5.04125 1.70868 0.987178
8 1 5.12622 1.58929 5.50176
9 1 1.26914 4.37732 7.61311
10 1 1.31497 4.3972 3.27999
11 1 2.45498 5.28912 1.17379
12 1 2.56785 0.818049 1.14286
13 1 6.23956 0.91326 3.24328
14 1 6.32079 0.762183 7.68731
15 1 6.31457 5.3162 7.58458
16 1 1.48456 1.67793 7.57534
17 1 8.79558 1.78954 3.28297
18 1 12.6552 4.37799 1.05066
19 1 14.0073 5.23745 3.19602
20 1 12.7293 4.42231 5.39783
21 1 10.1182 0.83962 5.38095
22 1 10.1311 5.21488 5.54404
23 1 12.7532 1.72799 1.07094
24 1 12.6836 1.75497 5.40513
25 1 8.81104 4.20773 7.52589
26 1 8.92129 4.45428 3.22923
27 1 10.1941 5.29319 0.972428
28 1 10.1595 0.933188 1.07871
29 1 13.9283 0.724407 3.12285
30 1 13.9821 0.861161 7.66361
31 1 13.9557 5.26356 7.61231
32 1 8.81918 1.59536 7.50728
33 1 1.36568 8.73719 3.21041
34 1 5.06527 11.4677 1.1669
35 1 6.30764 12.4083 3.30534
36 1 4.92132 11.4997 5.38303
37 1 2.50035 8.06503 5.42895
38 1 2.38004 12.346 5.35203
39 1 5.09496 8.90024 1.16666
40 1 5.11045 8.92566 5.38232
41 1 1.33215 11.5589 7.54253
42 1 1.30751 11.4297 3.15002
43 1 2.55603 12.4439 1.00551
44 1 2.562 7.84218 1.09157
45 1 6.33024 7.96678 3.26247
46 1 6.26128 7.94215 7.49932
47 1 6.30028 12.3411 7.55951
48 1 1.29999 8.89406 7.64901
49 1 8.81393 8.80739 3.27158
50 1 12.7272 11.3531 1.0138
51 1 13.9126 12.3834 3.15096
52 1 12.6909 11.606 5.43226
53 1 10.0481 7.94311 5.39096
54 1 10.1483 12.3791 5.36366
55 1 12.7074 8.82098 1.15118
56 1 12.5432 8.83786 5.31952
57 1 8.77721 11.4744 7.51842
58 1 8.86717 11.4547 3.21327
59 1 10.117 12.4219 1.08025
60 1 10.0602 7.95144 1.11262
61 1 13.9343 7.99548 3.25103
62 1 13.8319 7.9788 7.45452
63 1 14.0536 12.4916 7.64403
64 1 8.79839 8.81069 7.54193
65 1 1.29762 1.6575 12.0137
66 1 5.06774 4.38169 9.74475
67 1 6.32415 5.34238 11.861
68 1 5.07442 4.33859 14.0282
69 1 2.6298 0.876739 14.2466
70 1 2.6371 5.35563 14.17
71 1 5.20745 1.72139 9.82934
72 1 5.12989 1.68423 14.1819
73 1 1.34669 4.4149 16.3475
74 1 1.3557 4.38628 12.0083
75 1 2.56758 5.19483 9.75669
76 1 2.5943 0.893676 9.79589
77 1 6.29122 0.817078 11.9872
78 1 6.37326 0.838068 16.3717
79 1 6.36553 5.31842 16.3379
80 1 1.2788 1.73177 16.3887
81 1 8.83353 1.72758 11.9857
82 1 12.7361 4.4112 9.76821
83 1 13.9632 5.26779 11.9323
84 1 12.7017 4.40377 13.9973
85 1 10.144 0.858469 14.1575
86 1 10.1221 5.21633 14.0797
87 1 12.6241 1.73038 9.73634
88 1 12.6151 1.74263 14.2132
89 1 8.84565 4.43367 16.3607
90 1 8.82729 4.34485 11.8703
91 1 10.2242 5.34463 9.70519
92 1 10.1772 0.872783 9.71713
93 1 13.942 0.792103 11.9587
94 1 13.971 0.884188 16.3643
95 1 13.9533 5.2637 16.2741
96 1 8.87647 1.77587 16.3733
97 1 1.24981 8.82958 11.8877
98 1 5.08657 11.6214 9.74033
99 1 6.38651 12.4544 11.9408
100 1 5.14623 11.5083 14.1278
101 1 2.54035 7.97053 14.1633
102 1 2.558 12.4733 14.0089
103 1 4.99365 8.94533 9.6419
104 1 5.09826 8.83983 14.3112
105 1 1.39645 11.469 16.1924
106 1 1.30079 11.4391 11.913
107 1 2.55299 12.4453 9.78129
108 1 2.50941 7.89258 9.74338
109 1 6.21162 8.0307 11.9127
110 1 6.32061 7.95928 16.3998
111 1 6.32679 12.3769 16.3259
112 1 1.18271 8.79332 16.3364
113 1 8.78852 8.71177 12.0188
114 1 12.6586 11.5555 9.8157
115 1 13.8941 12.3893 11.9841
116 1 12.7792 11.507 14.1387
117 1 10.0785 7.88241 14.2468
118 1 10.2045 12.4079 14.1854
119 1 12.6535 8.84297 9.79793
120 1 12.5896 8.86949 14.201
121 1 8.89863 11.5585 16.3377
122 1 8.92726 11.4783 11.9535
123 1 10.1125 12.4243 9.72384
124 1 10.1247 7.94535 9.82302
125 1 13.7852 7.87768 12.0218
126 1 13.8978 7.90152 16.3294
127 1 14.0633 12.4137 16.3399
128 1 8.82644 8.85101 16.366
129 2 0.514425 1.4695 3.46911
130 2 1.46927 2.65338 3.31656
131 2 5.43875 4.93597 1.7551
132 2 5.4162 4.51905 17.6605
133 2 5.9784 4.95698 4.10446
134 2 6.44726 6.168 3.36963
135 2 4.04015 4.7294 5.37829
136 2 5.50977 4.71591 6.37286
137 2 2.00501 1.30093 4.77058
138 2 3.57316 1.14675 5.37756
139 2 1.98811 5.1001 6.28566
140 2 2.79579 6.17525 5.53903
141 2 5.44344 1.31792 1.69696
142 2 5.08552 2.88325 1.08967
143 2 4.99159 2.54089 5.58633
144 2 5.55598 1.35585 6.34414
145 2 1.81426 4.70553 8.51199
146 2 1.19822 3.27932 7.44623
147 2 1.67417 4.70665 4.19242
148 2 1.77617 4.65735 2.63398
149 2 3.51204 5.00654 0.991922
150 2 2.65117 6.14251 1.2184
151 2 3.55646 1.24869 0.991101
152 2 2.14456 1.25878 1.99798
153 2 5.74573 1.12946 4.13403
154 2 6.17614 14.2536 3.09485
155 2 5.63047 0.87915 8.37455
156 2 6.24019 13.9334 7.61605
157 2 7.45888 4.77234 7.49398
158 2 6.2717 6.42349 7.58327
159 2 1.87114 1.3996 6.72331
160 2 0.531582 1.29196 7.7619
161 2 8.90333 2.75424 3.17146
162 2 7.84769 1.58732 3.20326
163 2 12.5018 3.34746 0.872122
164 2 13.0654 4.57833 17.5954
165 2 13.4838 4.91233 2.37365
166 2 14.866 4.96625 3.21057
167 2 13.139 4.82172 4.57875
168 2 11.6584 4.7946 5.34046
169 2 10.9356 1.22236 5.3459
170 2 9.48982 1.36924 4.6007
171 2 10.0756 6.29802 5.3704
172 2 9.59638 4.90478 4.84384
173 2 11.6476 1.59812 0.940901
174 2 13.1376 1.19568 1.82076
175 2 12.7697 2.73859 5.207
176 2 13.1578 1.53342 6.08749
177 2 9.23973 4.38481 6.74385
178 2 8.50986 3.10082 7.48269
179 2 7.98393 4.76908 3.08462
180 2 9.34855 4.91161 2.32115
181 2 9.45023 5.02344 17.6837
182 2 11.1696 4.98168 1.08319
183 2 9.71599 1.43493 0.349028
184 2 9.69937 1.48079 1.82249
185 2 13.4605 0.983093 3.99569
186 2 13.9411 13.9991 3.24183
187 2 13.5735 1.22957 8.51552
188 2 13.8826 14.0428 7.72236
189 2 13.6068 4.91183 6.86324
190 2 15.0257 5.01802 7.74995
191 2 7.79647 1.25791 7.33459
192 2 9.38609 1.34309 6.63479
193 2 1.84151 8.45607 4.21837
194 2 1.26095 9.86898 3.0419
195 2 4.04558 11.894 0.855911
196 2 5.00061 10.6028 1.04671
197 2 7.37589 12.0702 3.23841
198 2 5.95891 11.975 2.50343
199 2 5.65704 11.7357 4.76342
200 2 5.32381 11.7905 6.26161
201 2 2.01609 8.60069 6.12287
202 2 3.60675 8.33349 5.45858
203 2 2.44894 13.3564 5.30107
204 2 3.26348 11.9091 5.49222
205 2 4.312 8.29102 1.26566
206 2 5.52548 8.56234 0.327193
207 2 5.17242 9.86501 5.26991
208 2 5.50328 8.5222 4.47106
209 2 1.79078 11.6867 6.59577
210 2 1.20323 10.6506 7.56057
211 2 15.3834 11.8616 3.44757
212 2 1.50383 11.7636 4.04461
213 2 1.90774 12.0021 1.64445
214 2 2.72365 13.4394 1.22368
215 2 1.93299 8.28457 1.7322
216 2 2.00197 8.18069 17.7469
217 2 7.20663 8.40383 3.28537
218 2 5.81066 8.41049 2.43743
219 2 5.98874 8.21016 6.72901
220 2 7.17431 8.37263 7.47927
221 2 5.77624 12.0867 8.42512
222 2 7.22534 12.0428 7.43993
223 2 0.430982 8.47968 7.41946
224 2 1.81119 8.47819 8.42388
225 2 9.45234 8.45504 4.04829
226 2 9.28818 8.58489 2.38488
227 2 11.7287 11.8258 1.06004
228 2 12.4284 10.3826 1.05606
229 2 13.4322 11.8786 2.4717
230 2 13.6314 12.0681 4.05256
231 2 13.236 12.0693 6.11449
232 2 11.8307 11.8554 5.41371
233 2 11.044 8.43816 5.35421
234 2 9.7113 8.29903 6.1539
235 2 10.1295 13.3852 5.21062
236 2 9.78535 11.9525 4.5731
237 2 13.1706 8.63891 1.91148
238 2 13.3295 8.54947 17.6991
239 2 13.0702 8.69087 4.36392
240 2 12.454 9.80586 5.36131
241 2 9.27121 11.7992 8.1687
242 2 9.44803 11.7196 6.63801
243 2 8.82764 10.573 3.16708
244 2 9.29363 11.7768 2.33047
245 2 10.1359 13.4856 0.848663
246 2 9.70964 12.1089 17.7041
247 2 11.0687 8.10738 1.23761
248 2 10.3798 7.0282 1.20898
249 2 14.8917 8.18131 3.21895
250 2 14.0607 6.98629 3.08862
251 2 13.8499 7.16596 7.26877
252 2 13.3332 8.32829 6.66373
253 2 15.1336 12.2637 7.67882
254 2 13.6467 12.1241 8.38837
255 2 8.87525 9.85139 7.40765
256 2 9.08431 8.43288 8.33791
257 2 1.73311 1.48026 11.1624
258 2 0.397134 1.26841 11.944
259 2 5.63603 4.71114 10.6597
260 2 5.37636 4.90467 9.0467
261 2 6.01271 6.41767 12.0601
262 2 5.74009 4.84723 12.9229
263 2 4.0729 4.49204 14.1021
264 2 5.20591 3.33177 14.1531
265 2 2.16846 1.32708 13.495
266 2 2.06772 1.0954 15.0549
267 2 2.23778 4.93831 14.9571
268 2 2.61972 6.40233 14.1833
269 2 4.35338 1.47139 9.80814
270 2 5.17423 2.62013 9.64395
271 2 4.1033 1.33272 14.2121
272 2 5.56574 1.39097 15.0065
273 2 1.70477 4.68112 17.2001
274 2 1.19933 3.56036 16.3904
275 2 2.03972 4.66689 12.8843
276 2 1.5432 3.24099 12.2201
277 2 2.09258 4.77811 10.5211
278 2 3.57504 5.09188 9.84118
279 2 2.0756 1.20829 9.00436
280 2 2.63113 14.1524 9.94538
281 2 5.73527 0.965683 11.1039
282 2 5.97262 0.947814 12.9963
283 2 6.46773 14.0382 16.3645
284 2 5.92022 1.15884 17.0541
285 2 7.24339 4.80068 16.0138
286 2 5.85692 5.01125 15.3953
287 2 15.3965 1.30519 16.4923
288 2 1.81939 1.65291 17.1331
289 2 7.90279 1.22133 12.1163
290 2 8.83678 2.6048 11.8559
291 2 13.3584 4.81863 8.90282
292 2 13.0222 4.84158 10.6761
293 2 15.0246 5.22498 12.0215
294 2 13.658 4.86151 12.8312
295 2 13.2464 4.69976 14.7788
296 2 12.8005 3.30816 14.0219
297 2 10.2659 14.25 14.2711
298 2 9.62201 1.25501 13.3475
299 2 11.0515 5.04149 14.1067
300 2 9.76728 4.91267 13.1539
301 2 12.6634 2.81259 9.89386
302 2 11.7978 1.14026 9.71693
303 2 13.0863 1.34868 14.841
304 2 11.4879 1.36136 14.1845
305 2 8.8796 3.50462 16.4645
306 2 9.1407 4.62953 15.4469
307 2 9.1397 4.78338 11.0961
308 2 7.92123 4.69382 11.9534
309 2 10.0934 5.11957 8.76186
310 2 11.0848 5.03061 9.83397
311 2 9.63826 1.21288 10.4612
312 2 9.5873 1.27661 8.856
313 2 13.3359 1.00815 10.9851
314 2 13.3751 1.09068 12.7485
315 2 13.5042 1.0984 17.203
316 2 14.0715 14.1331 16.3662
317 2 13.8364 6.31997 16.1722
318 2 15.0371 5.1165 16.1248
319 2 7.94295 1.44691 16.1113
320 2 9.46977 1.41692 15.5369
321 2 1.59099 8.50529 10.995
322 2 1.10501 9.97105 11.8824
323 2 5.36153 11.9651 10.6811
324 2 4.04174 11.9358 9.86328
325 2 5.70939 12.2368 12.8585
326 2 6.44253 13.3441 12.0631
327 2 4.0794 11.9102 14.1779
328 2 4.87148 10.6517 14.1304
329 2 3.50073 8.29492 14.1283
330 2 1.98378 8.40583 13.4532
331 2 2.49386 13.5791 14.0184
332 2 1.93305 12.0555 14.8009
333 2 5.0581 9.88286 9.79814
334 2 5.53364 8.52196 9.08516
335 2 5.52658 8.62765 13.4393
336 2 5.8382 8.54627 15.1343
337 2 0.432484 11.567 16.1432
338 2 1.79736 12.1847 16.9593
339 2 0.372544 11.7405 11.9758
340 2 1.84447 11.6815 12.8389
341 2 2.12358 12.081 9.00526
342 2 2.29876 12.0695 10.6864
343 2 2.54039 7.00299 9.84252
344 2 3.40755 8.19732 9.73096
345 2 7.25162 8.36091 11.6934
346 2 5.58563 8.5084 11.2898
347 2 6.42464 6.81182 16.3982
348 2 7.14249 8.33225 16.6099
349 2 6.07188 12.0619 17.1966
350 2 5.78927 11.7666 15.5649
351 2 1.77212 8.63156 15.6456
352 2 1.26463 9.84796 16.319
353 2 9.18648 8.37338 12.8267
354 2 9.30096 8.2071 11.2645
355 2 12.5425 10.5838 10.1224
356 2 11.7661 11.7141 9.56143
357 2 13.8471 13.4079 11.9627
358 2 13.5895 12.1029 11.0356
359 2 11.7285 11.7232 14.1548
360 2 13.1345 11.7448 13.1955
361 2 10.8841 8.3146 14.3217
362 2 10.2657 6.96207 14.3084
363 2 9.91646 12.0693 15.0179
364 2 9.85038 11.9704 13.4752
365 2 13.1141 8.58731 8.97337
366 2 13.1209 8.59607 10.521
367 2 13.033 8.55832 13.2594
368 2 12.6241 9.90485 14.2643
369 2 8.79946 10.64 16.1855
370 2 7.99081 11.7888 16.3668
371 2 7.97233 11.6685 11.9679
372 2 8.7117 10.412 12.069
373 2 10.1877 13.352 9.75848
374 2 9.61996 12.0327 10.466
375 2 10.2036 7.00811 9.72356
376 2 11.0073 8.27689 9.79693
377 2 14.7586 8.32275 11.9197
378 2 14.004 6.8646 11.9658
379 2 14.7107 8.16309 16.3941
380 2 13.4786 8.30381 15.5418
381 2 13.5677 11.9311 17.1393
382 2 13.6684 12.1535 15.6393
383 2 9.27892 8.51829 15.4794
384 2 9.45176 8.44707 17.2162
ITEM: TIMESTEP
400
ITEM: NUMBER OF ATOMS
384
ITEM: BOX BOUNDS pp pp pp
4.6654049692420863e-01 1.5179137033075790e+01
4.3348055518130035e-01 1.4273664734818711e+01
6.2313843955395143e-01 1.7449898590446061e+01
ITEM: ATOMS id type x y z
1 1 1.40871 1.65851 3.28385
2 1 5.02529 4.45203 1.08881
3 1 6.24983 5.1278 3.20795
4 1 4.83873 4.15711 5.12003
5 1 2.54308 0.488081 5.28747
6 1 2.51398 5.18222 5.32285
7 1 4.84481 1.73932 1.27409
8 1 4.9841 1.6042 5.25248
9 1 1.22302 4.35283 7.36992
10 1 1.25257 4.31126 3.15553
11 1 2.49904 5.06908 1.01786
12 1 2.50221 0.962336 1.05441
13 1 6.22394 0.85536 3.22504
14 1 6.25863 0.767966 7.34397
15 1 6.12602 5.10057 7.16233
16 1 1.41402 1.67245 7.30775
17 1 8.54199 1.75526 3.15937
18 1 12.1854 4.17117 0.794436
19 1 13.3917 4.98367 2.95198
20 1 12.1877 4.09666 5.08911
21 1 9.88451 0.688993 5.13147
22 1 9.85693 5.07054 5.25656
23 1 12.2623 1.55353 1.00038
24 1 12.4076 1.56173 5.28598
25 1 8.54751 4.09937 7.29216
26 1 8.685 4.38734 3.09057
27 1 9.86657 5.28317 0.88273
28 1 9.79337 0.859846 1.0897
29 1 13.6534 0.971465 3.12861
30 1 13.6746 0.847522 7.45896
31 1 13.4789 5.19658 7.13906
32 1 8.78565 1.47715 7.30595
33 1 1.30743 8.50282 3.11146
34 1 5.00007 11.1123 1.05472
35 1 6.23825 12.0912 3.01527
36 1 4.91903 11.3086 5.12078
37 1 2.4634 7.76804 5.31646
38 1 2.34513 11.8561 5.24299
39 1 4.77669 8.57014 1.05955
40 1 4.87435 8.57566 5.12386
41 1 1.22564 11.085 7.36182
42 1 1.24419 11.1712 3.10645
43 1 2.54382 12.2156 1.08245
44 1 2.3833 7.64745 0.974823
45 1 6.22763 7.7344 3.03966
46 1 6.08433 7.78011 7.31457
47 1 6.03847 12.0201 7.33702
48 1 1.169 8.44045 7.36215
49 1 8.68745 8.53863 3.15458
50 1 12.3117 11.214 1.08662
51 1 13.5031 12.1809 3.08048
52 1 12.2642 11.3363 5.24917
53 1 9.88074 7.65378 5.27804
54 1 9.80321 12.016 5.23201
55 1 12.4049 8.60557 1.04142
56 1 12.2315 8.76188 5.06649
57 1 8.46105 11.1338 7.31195
58 1 8.69824 11.1919 3.12263
59 1 9.92012 12.1051 1.02592
60 1 9.9059 7.72821 1.01723
61 1 13.4728 7.6482 3.14323
62 1 13.3577 7.87443 7.28553
63 1 13.486 12.1472 7.51016
64 1 8.44875 8.63656 7.25572
65 1 1.37734 1.60758 11.6327
66 1 4.99037 4.28579 9.3758
67 1 6.25093 5.18753 11.5616
68 1 5.02884 4.46335 13.6068
69 1 2.51937 0.775341 13.6791
70 1 2.4801 5.17894 13.6718
71 1 5.01392 1.659 9.62171
72 1 4.96635 1.84176 13.7966
73 1 1.13728 4.26656 15.7175
74 1 1.33114 4.23905 11.6495
75 1 2.50393 5.1107 9.55775
76 1 2.55082 0.790509 9.48472
77 1 6.17843 0.806147 11.7718
78 1 6.03387 0.763989 15.8537
79 1 6.33219 5.18518 15.7608
80 1 1.21644 1.66125 15.7606
81 1 8.49586 1.73891 11.5636
82 1 12.3282 4.30205 9.42715
83 1 13.5252 5.03225 11.6187
84 1 12.2425 4.16024 13.5207
85 1 9.74565 0.784019 13.5612
86 1 9.72859 4.99689 13.4557
87 1 12.2655 1.75623 9.53027
88 1 12.2383 1.53992 13.7945
89 1 8.70086 4.08761 15.6426
90 1 8.55757 4.28979 11.3077
91 1 9.89268 5.17209 9.24422
92 1 9.94943 0.711057 9.53444
93 1 13.5991 0.898724 11.5537
94 1 13.6178 0.633292 15.9203
95 1 13.4303 5.18505 15.5587
96 1 8.5596 1.5183 15.7009
97 1 1.22562 8.71425 11.55
98 1 4.86643 11.235 9.51827
99 1 6.17519 11.957 11.6688
100 1 4.86049 11.2537 13.7314
101 1 2.42182 7.82949 13.5721
102 1 2.38207 11.9755 13.5976
103 1 4.71931 8.63499 9.45119
104 1 4.68957 8.65461 13.7786
105 1 1.3433 11.0314 15.7702
106 1 1.21226 11.3267 11.5271
107 1 2.44675 12.1242 9.41186
108 1 2.35561 7.67919 9.44491
109 1 6.08809 7.90847 11.4702
110 1 6.10486 7.74098 15.7194
111 1 6.19824 12.0503 15.8191
112 1 1.24467 8.55572 15.7285
113 1 8.6824 8.60984 11.4456
114 1 12.1679 11.202 9.45293
115 1 13.4848 12.2639 11.4799
116 1 12.2097 11.2814 13.5286
117 1 9.75176 7.63407 13.6685
118 1 9.77262 12.0747 13.4567
119 1 12.2194 8.62084 9.48079
120 1 12.187 8.64243 13.6305
121 1 8.59712 11.2697 15.8121
122 1 8.55085 11.0951 11.4853
123 1 9.69597 12.013 9.45708
124 1 9.8383 7.72169 9.42904
125 1 13.4451 7.63208 11.5296
126 1 13.5247 7.74655 15.6781
127 1 13.5228 11.7851 15.7493
128 1 8.55255 8.57764 15.7292
129 2 15.0928 1.58744 3.39909
130 2 1.22347 2.74335 3.0764
131 2 5.44789 4.61539 1.89558
132 2 5.67143 4.73806 17.1
133 2 5.80345 4.77237 4.06091
134 2 6.2435 6.12125 3.07655
135 2 3.9221 4.47463 5.09363
136 2 5.41136 4.5057 5.94843
137 2 2.11028 1.09996 4.42873
138 2 3.37958 0.904836 5.11508
139 2 1.9241 4.9828 5.93567
140 2 2.39588 6.17418 5.15221
141 2 5.48189 1.59069 2.08659
142 2 5.0887 2.65811 1.17606
143 2 4.7988 2.48633 5.23035
144 2 5.48848 1.26495 6.13049
145 2 1.69747 4.55042 8.25946
146 2 1.11507 3.39004 7.38723
147 2 1.61436 4.71229 3.91432
148 2 1.74524 4.6914 2.22095
149 2 3.53241 4.97109 1.12272
150 2 2.36421 5.94942 1.16177
151 2 3.43659 1.3679 0.958672
152 2 2.15219 1.16051 1.87462
153 2 5.62764 1.13225 4.14737
154 2 6.19488 13.674 3.17338
155 2 5.8454 1.18397 8.24702
156 2 6.12697 13.5834 7.45356
157 2 7.03839 4.66103 7.11652
158 2 6.0657 6.00164 7.37413
159 2 1.85443 1.41622 6.46994
160 2 15.1233 1.50194 7.4214
161 2 8.40908 2.74007 3.16722
162 2 7.46109 1.37656 3.02011
163 2 12.1915 3.10234 0.668164
164 2 12.6353 4.54736 16.7504
165 2 12.9311 4.95728 2.05473
166 2 14.2222 4.58769 2.77922
167 2 12.492 4.50183 4.07019
168 2 11.4257 4.58093 5.13705
169 2 10.8027 0.968484 5.36698
170 2 9.38662 1.12495 4.40958
171 2 9.7744 6.11503 5.30922
172 2 9.3815 4.87349 4.27246
173 2 11.3114 1.24074 1.22108
174 2 12.7669 1.28084 1.8194
175 2 12.294 2.64859 5.37095
176 2 12.8626 1.24944 6.09176
177 2 8.863 4.47723 6.46055
178 2 8.81333 3.0626 7.26464
179 2 7.53577 4.51963 3.20542
180 2 9.17054 4.63992 2.26854
181 2 9.52546 4.79366 16.9706
182 2 10.7894 4.88593 0.98319
183 2 9.30576 1.28544 17.022
184 2 9.37809 1.2261 2.009
185 2 13.0162 1.38391 3.83408
186 2 13.5394 13.6314 3.20128
187 2 12.9131 1.21701 8.09381
188 2 13.601 13.4622 7.54797
189 2 13.0793 4.53462 6.40666
190 2 14.4032 4.89581 7.53585
191 2 7.78647 1.25617 7.38748
192 2 9.29382 1.06052 6.48315
193 2 1.92811 8.1745 3.9326
194 2 1.28983 9.44396 3.48232
195 2 4.07605 11.5475 1.07723
196 2 4.80614 10.0492 1.29422
197 2 7.04561 11.7663 2.99404
198 2 5.66543 11.7805 2.24413
199 2 5.56621 11.5261 4.39999
200 2 5.34877 11.582 6.05908
201 2 2.05315 8.20386 6.14849
202 2 3.30302 8.07002 5.37002
203 2 2.53699 12.9377 5.31634
204 2 3.32632 11.6856 5.21285
205 2 3.89175 8.26868 0.867156
206 2 5.23336 8.43466 17.0591
207 2 4.92585 9.67754 5.12674
208 2 5.39454 8.27293 4.24838
209 2 1.78111 11.1787 6.60753
210 2 0.9878 10.1729 7.45118
211 2 15.0954 11.4493 3.10767
212 2 1.84245 11.3646 3.78322
213 2 2.10423 11.9771 1.90173
214 2 2.5573 13.2745 1.11775
215 2 1.81314 8.06152 1.66115
216 2 1.98094 7.89225 16.9154
217 2 7.17491 7.72837 3.03093
218 2 5.77227 8.14682 2.19745
219 2 5.68622 8.01544 6.3787
220 2 7.05059 8.23497 7.33593
221 2 5.45941 11.7862 8.06593
222 2 7.15187 11.6854 7.29435
223 2 14.9266 8.18219 7.38678
224 2 1.1926 8.33905 8.41267
225 2 9.05262 8.21201 4.0039
226 2 9.2382 8.21294 2.42714
227 2 11.4558 11.6212 1.02406
228 2 12.0534 10.1905 1.00035
229 2 12.9869 11.6897 2.29401
230 2 13.1093 11.9603 3.95499
231 2 12.75 11.6203 5.87865
232 2 11.2107 11.5404 5.36818
233 2 10.7882 8.13719 5.36339
234 2 9.26516 8.02271 6.02128
235 2 9.73959 12.9492 5.16069
236 2 9.49245 11.7007 4.29096
237 2 12.8342 8.3322 1.8792
238 2 12.9011 8.25145 17.1739
239 2 12.546 8.41022 4.16132
240 2 12.1582 9.83748 5.26928
241 2 8.89149 11.3284 8.24187
242 2 9.09101 11.545 6.41992
243 2 8.86087 10.1271 3.08613
244 2 9.26924 11.5276 2.23475
245 2 9.95946 13.0068 0.747058
246 2 9.65229 11.7662 16.9396
247 2 10.6876 7.99824 1.20481
248 2 9.95983 6.46833 0.911392
249 2 14.4302 7.9122 3.30182
250 2 13.5675 6.66342 3.20969
251 2 13.289 6.91574 7.05354
252 2 12.7354 8.27922 6.46681
253 2 14.518 11.5546 7.26612
254 2 12.9699 11.5545 8.25467
255 2 8.58836 9.76432 7.47723
256 2 8.83137 8.33436 8.18206
257 2 2.01414 1.30218 10.7183
258 2 15.103 1.23375 11.6476
259 2 5.39777 4.56281 10.1942
260 2 5.4229 4.72734 8.57961
261 2 6.05621 6.30214 11.4108
262 2 5.71952 5.05653 12.3261
263 2 4.09965 4.74931 13.6585
264 2 4.97618 3.41893 13.7173
265 2 2.37481 1.24439 12.7858
266 2 2.12467 1.26286 14.4452
267 2 1.93624 4.98957 14.5208
268 2 2.60459 6.23559 13.7371
269 2 4.07614 1.32995 9.52625
270 2 5.0019 2.65092 9.44498
271 2 3.8797 1.51066 13.8168
272 2 5.20273 1.4634 14.7828
273 2 1.60796 4.48139 16.5875
274 2 1.01168 3.26728 15.6836
275 2 1.92828 4.55104 12.3982
276 2 1.41668 3.04337 11.594
277 2 1.97523 4.74849 10.3404
278 2 3.46041 4.83949 9.49572
279 2 2.26196 1.20691 8.4595
280 2 2.47394 13.7324 9.43576
281 2 5.64735 1.11146 11.016
282 2 5.60448 1.08787 12.5071
283 2 5.92684 13.5786 15.9001
284 2 5.44014 1.16934 16.7108
285 2 7.09302 4.76528 15.7766
286 2 5.77231 4.83608 14.9281
287 2 15.1096 0.861405 15.7669
288 2 1.6396 1.42655 16.5779
289 2 7.67715 1.50536 11.713
290 2 8.66496 2.72359 11.629
291 2 12.819 4.64452 8.53946
292 2 12.9185 4.52179 10.3413
293 2 14.5355 4.41024 11.7336
294 2 13.0262 4.59098 12.2811
295 2 12.9316 4.72729 14.3694
296 2 12.1191 3.0816 13.8156
297 2 9.67584 13.6436 13.359
298 2 9.34693 1.15302 12.8309
299 2 10.6725 4.54579 13.3535
300 2 9.32029 4.68525 12.4576
301 2 12.038 2.61364 9.62887
302 2 11.26 1.43463 9.77441
303 2 12.6098 1.13053 14.5335
304 2 11.3298 1.33538 13.8666
305 2 8.57767 3.08966 15.5647
306 2 9.02225 4.46736 14.6811
307 2 8.92539 4.84419 10.6007
308 2 7.72268 4.77664 11.4883
309 2 9.49 4.97565 8.4228
310 2 10.964 4.99043 9.11554
311 2 9.58588 1.23224 10.5034
312 2 9.40336 0.863771 8.70615
313 2 13.1322 1.19629 10.7224
314 2 13.1179 1.11583 12.4052
315 2 13.123 1.15951 16.8274
316 2 13.29 13.5449 16.1103
317 2 13.3366 6.21262 15.4126
318 2 14.3615 4.80544 15.5665
319 2 7.65182 1.33491 15.5968
320 2 9.17014 1.17961 14.9444
321 2 1.76577 8.24216 10.8042
322 2 1.54654 9.77866 11.6078
323 2 5.32657 11.6031 10.5092
324 2 3.97755 11.3871 9.54144
325 2 5.58415 11.5622 12.3892
326 2 6.20645 12.9318 11.6806
327 2 3.86453 11.4199 13.5817
328 2 4.84117 10.2059 13.8331