ITEM: TIMESTEP
0
ITEM: NUMBER OF ATOMS
384
ITEM: BOX BOUNDS pp pp pp
0.0000000000000000e+00 1.5645677530000000e+01
0.0000000000000000e+00 1.4707145290000000e+01
0.0000000000000000e+00 1.8073037029999998e+01
ITEM: ATOMS id type x y z
1 1 1.38 1.76 3.37
2 1 5.2 4.47 1.11
3 1 6.59 5.39 3.31
4 1 5.28 4.49 5.56
5 1 2.59 0.84 5.67
6 1 2.69 5.43 5.56
7 1 5.2 1.71 1.07
8 1 5.2 1.73 5.58
9 1 1.32 4.61 7.82
10 1 1.3 4.52 3.36
11 1 2.61 5.41 1.1
12 1 2.59 0.82 1.07
13 1 6.54 0.87 3.33
14 1 6.54 0.88 7.83
15 1 6.51 5.4 7.86
16 1 1.35 1.85 7.92
17 1 9.2 1.76 3.37
18 1 13.05 4.55 1.15
19 1 14.35 5.46 3.4
20 1 13.1 4.49 5.66
21 1 10.41 0.84 5.67
22 1 10.51 5.43 5.65
23 1 13.07 1.79 1.07
24 1 13.02 1.73 5.58
25 1 9.15 4.61 7.91
26 1 9.2 4.52 3.4
27 1 10.45 5.49 1.15
28 1 10.49 0.82 1.12
29 1 14.36 0.87 3.33
30 1 14.36 0.88 7.83
31 1 14.36 5.48 7.9
32 1 9.17 1.85 7.92
33 1 1.3 9.11 3.32
34 1 5.3 11.9 1.11
35 1 6.53 12.81 3.4
36 1 5.2 11.84 5.61
37 1 2.59 8.19 5.58
38 1 2.61 12.79 5.61
39 1 5.25 9.14 1.16
40 1 5.2 9.08 5.67
41 1 1.32 11.96 7.91
42 1 1.38 11.87 3.31
43 1 2.69 12.77 1.06
44 1 2.67 8.17 1.12
45 1 6.49 8.14 3.42
46 1 6.49 8.16 7.92
47 1 6.53 12.83 7.81
48 1 1.35 9.21 7.83
49 1 9.09 9.19 3.37
50 1 13.13 11.9 1.11
51 1 14.44 12.82 3.35
52 1 13.1 11.84 5.56
53 1 10.41 8.19 5.58
54 1 10.51 12.79 5.65
55 1 12.99 9.14 1.12
56 1 13.02 9.08 5.67
57 1 9.12 11.89 7.86
58 1 9.15 11.95 3.4
59 1 10.51 12.77 1.15
60 1 10.38 8.25 1.12
61 1 14.29 8.22 3.37
62 1 14.36 8.24 7.92
63 1 14.36 12.83 7.81
64 1 9.12 9.13 7.83
65 1 1.35 1.83 12.45
66 1 5.2 4.47 10.14
67 1 6.59 5.39 12.34
68 1 5.3 4.56 14.65
69 1 2.67 0.84 14.66
70 1 2.69 5.43 14.6
71 1 5.28 1.71 10.15
72 1 5.25 1.81 14.61
73 1 1.32 4.61 16.85
74 1 1.32 4.59 12.35
75 1 2.63 5.49 10.09
76 1 2.64 0.89 10.2
77 1 6.57 0.79 12.41
78 1 6.54 0.88 16.87
79 1 6.53 5.48 16.94
80 1 1.35 1.85 16.86
81 1 9.2 1.76 12.41
82 1 13.02 4.47 10.14
83 1 14.35 5.46 12.34
84 1 13.05 4.57 14.6
85 1 10.46 0.91 14.71
86 1 10.46 5.51 14.69
87 1 13.1 1.71 10.15
88 1 13.07 1.81 14.61
89 1 9.15 4.61 16.94
90 1 9.2 4.52 12.44
91 1 10.45 5.49 10.18
92 1 10.49 0.82 10.16
93 1 14.39 0.79 12.41
94 1 14.36 0.88 16.87
95 1 14.33 5.4 16.89
96 1 9.17 1.85 16.96
97 1 1.3 9.11 12.45
98 1 5.28 11.83 10.1
99 1 6.59 12.74 12.34
100 1 5.3 11.92 14.65
101 1 2.59 8.19 14.71
102 1 2.69 12.79 14.6
103 1 5.2 9.07 10.2
104 1 5.17 9.16 14.66
105 1 1.38 11.89 16.85
106 1 1.38 11.87 12.35
107 1 2.71 12.84 10.14
108 1 2.56 8.25 10.16
109 1 6.49 8.14 12.46
110 1 6.46 8.24 16.91
111 1 6.61 12.83 16.89
112 1 1.3 9.13 16.96
113 1 9.09 9.19 12.41
114 1 13.13 11.9 10.14
115 1 14.41 12.74 12.44
116 1 13.1 11.84 14.69
117 1 10.38 8.27 14.66
118 1 10.53 12.86 14.64
119 1 12.99 9.14 10.15
120 1 13.02 9.08 14.7
121 1 9.23 11.96 16.9
122 1 9.23 11.95 12.39
123 1 10.51 12.77 10.09
124 1 10.38 8.25 10.16
125 1 14.29 8.22 12.41
126 1 14.31 8.16 16.96
127 1 14.44 12.83 16.89
128 1 9.09 9.21 16.91
129 2 0.46 1.48 3.37
130 2 1.33 2.71 3.37
131 2 5.68 4.81 1.86
132 2 5.67 4.81 0.35
133 2 6.13 5.1 4.1
134 2 6.56 6.34 3.34
135 2 4.38 4.84 5.6
136 2 5.7 4.83 6.36
137 2 2.17 1.18 4.88
138 2 3.49 1.17 5.63
139 2 2.23 5.15 6.35
140 2 2.65 6.39 5.59
141 2 5.65 1.43 1.86
142 2 5.23 2.67 1.1
143 2 5.23 2.69 5.61
144 2 5.65 1.45 6.37
145 2 1.78 4.88 8.61
146 2 1.33 3.65 7.85
147 2 1.78 4.85 4.11
148 2 1.78 4.85 2.6
149 2 3.52 5.14 1.1
150 2 2.64 6.37 1.11
151 2 3.49 1.15 1.11
152 2 2.17 1.16 1.87
153 2 6.09 1.14 4.12
154 2 6.53 14.6171 3.37
155 2 6.09 1.15 8.63
156 2 6.53 14.6371 7.86
157 2 7.43 5.14 7.86
158 2 6.53 6.36 7.86
159 2 1.77 1.51 7.13
160 2 0.46 1.51 7.89
161 2 9.16 2.71 3.37
162 2 8.28 1.48 3.37
163 2 13.06 3.59 1.12
164 2 13.5 4.82 0.36
165 2 13.94 5.12 2.61
166 2 15.25 5.14 3.36
167 2 13.52 4.82 4.86
168 2 12.21 4.84 5.62
169 2 11.31 1.17 5.63
170 2 10 1.18 4.88
171 2 10.47 6.39 5.62
172 2 10.05 5.15 4.86
173 2 12.18 1.46 1.11
174 2 13.49 1.45 1.86
175 2 13.05 2.69 5.61
176 2 13.48 1.45 6.37
177 2 9.61 4.88 7.11
178 2 9.16 3.65 7.88
179 2 8.3 4.84 3.36
180 2 9.61 4.85 2.61
181 2 10.04 5.17 0.35
182 2 11.35 5.14 1.11
183 2 10.02 1.16 0.36
184 2 10.02 1.16 1.88
185 2 13.91 1.14 4.12
186 2 14.35 14.6171 3.37
187 2 13.91 1.15 8.63
188 2 14.36 14.6371 7.86
189 2 13.94 5.14 7.11
190 2 15.26 5.16 7.86
191 2 8.28 1.51 7.89
192 2 9.59 1.51 7.13
193 2 1.75 8.83 4.12
194 2 1.33 10.07 3.36
195 2 4.39 12.19 1.1
196 2 5.25 10.94 1.11
197 2 7.43 12.49 3.36
198 2 6.12 12.48 2.61
199 2 5.68 12.17 4.85
200 2 5.68 12.18 6.37
201 2 2.17 8.54 6.37
202 2 3.49 8.52 5.61
203 2 2.64 13.74 5.61
204 2 3.52 12.51 5.61
205 2 4.35 8.81 1.13
206 2 5.66 8.81 0.36
207 2 5.23 10.04 5.63
208 2 5.65 8.8 4.88
209 2 1.78 12.24 7.11
210 2 1.34 11.01 7.88
211 2 0.48 12.2 3.35
212 2 1.79 12.21 4.11
213 2 2.23 12.49 1.85
214 2 2.65 13.72 1.09
215 2 2.19 8.52 1.88
216 2 2.2 8.52 0.36
217 2 7.38 8.49 3.39
218 2 6.07 8.48 2.63
219 2 6.07 8.5 7.13
220 2 7.38 8.51 7.89
221 2 6.12 12.49 8.61
222 2 7.43 12.51 7.85
223 2 0.46 8.86 7.86
224 2 1.77 8.86 8.62
225 2 9.57 8.85 4.13
226 2 9.57 8.84 2.61
227 2 12.21 12.19 1.1
228 2 13.08 10.94 1.11
229 2 13.95 12.48 2.6
230 2 13.95 12.48 4.11
231 2 13.52 12.18 6.36
232 2 12.21 12.19 5.6
233 2 11.31 8.52 5.61
234 2 10 8.54 6.37
235 2 10.47 13.74 5.62
236 2 10.05 12.51 4.86
237 2 13.47 8.8 1.87
238 2 13.47 8.81 0.36
239 2 13.48 8.8 4.88
240 2 13.05 10.04 5.63
241 2 9.6 12.22 8.62
242 2 9.6 12.22 7.11
243 2 9.16 10.99 3.37
244 2 9.61 12.22 2.61
245 2 10.48 13.72 1.13
246 2 10.05 12.49 0.35
247 2 11.3 8.53 1.12
248 2 10.43 7.29 1.11
249 2 15.2 8.51 3.37
250 2 14.34 7.26 3.37
251 2 14.36 7.28 7.88
252 2 13.91 8.52 7.13
253 2 15.26 12.51 7.85
254 2 13.94 12.49 8.61
255 2 9.15 10.09 7.86
256 2 9.57 8.85 8.62
257 2 1.77 1.49 11.66
258 2 0.46 1.49 12.42
259 2 5.68 4.81 10.9
260 2 5.67 4.81 9.38
261 2 6.56 6.34 12.38
262 2 6.13 5.1 13.14
263 2 4.39 4.85 14.65
264 2 5.25 3.61 14.65
265 2 2.19 1.18 13.9
266 2 2.19 1.18 15.42
267 2 2.23 5.15 15.39
268 2 2.65 6.39 14.63
269 2 4.36 1.44 10.15
270 2 5.24 2.67 10.15
271 2 4.35 1.48 14.65
272 2 5.66 1.47 15.41
273 2 1.78 4.88 17.65
274 2 1.33 3.65 16.89
275 2 1.78 4.87 13.14
276 2 1.34 3.64 12.39
277 2 2.21 5.16 10.89
278 2 3.52 5.14 10.13
279 2 2.19 1.18 9.41
280 2 2.63 14.6471 10.16
281 2 6.09 1.13 11.65
282 2 6.09 1.14 13.17
283 2 6.53 14.6371 16.9
284 2 6.09 1.15 17.67
285 2 7.43 5.16 16.9
286 2 6.12 5.14 16.15
287 2 0.46 1.51 16.89
288 2 1.77 1.51 17.66
289 2 8.28 1.48 12.41
290 2 9.16 2.71 12.4
291 2 13.5 4.81 9.38
292 2 13.5 4.81 10.9
293 2 15.25 5.14 12.39
294 2 13.94 5.13 13.14
295 2 13.51 4.84 15.39
296 2 13.06 3.61 14.64
297 2 10.46 14.6671 14.67
298 2 10.01 1.19 13.91
299 2 11.35 5.16 14.65
300 2 10.04 5.17 13.9
301 2 13.07 2.67 10.15
302 2 12.18 1.44 10.15
303 2 13.49 1.47 15.41
304 2 12.18 1.48 14.65
305 2 9.16 3.65 16.91
306 2 9.61 4.88 16.15
307 2 9.61 4.85 11.64
308 2 8.3 4.84 12.4
309 2 10.04 5.17 9.39
310 2 11.35 5.14 10.15
311 2 10.02 1.16 10.91
312 2 10.02 1.16 9.4
313 2 13.92 1.13 11.65
314 2 13.92 1.14 13.17
315 2 13.91 1.15 17.67
316 2 14.36 14.6371 16.9
317 2 14.36 6.36 16.9
318 2 15.25 5.14 16.9
319 2 8.28 1.51 16.93
320 2 9.59 1.51 16.17
321 2 1.75 8.83 11.66
322 2 1.33 10.07 12.41
323 2 5.7 12.16 10.89
324 2 4.38 12.17 10.13
325 2 6.13 12.46 13.14
326 2 6.56 13.7 12.38
327 2 4.39 12.21 14.65
328 2 5.25 10.96 14.65
329 2 3.49 8.52 14.67
330 2 2.17 8.53 13.91
331 2 2.65 13.74 14.63
332 2 2.23 12.5 15.39
333 2 5.22 10.02 10.17
334 2 5.65 8.79 9.4
335 2 5.65 8.81 13.9
336 2 5.65 8.82 15.42
337 2 0.48 12.22 16.89
338 2 1.79 12.22 17.65
339 2 0.48 12.2 12.39
340 2 1.79 12.21 13.14
341 2 2.23 12.52 9.38
342 2 2.23 12.51 10.89
343 2 2.61 7.29 10.15
344 2 3.48 8.53 10.16
345 2 7.38 8.49 12.42
346 2 6.07 8.48 11.66
347 2 6.52 7.28 16.91
348 2 7.37 8.53 16.91
349 2 6.14 12.5 17.65
350 2 6.13 12.5 16.14
351 2 1.75 8.84 16.16
352 2 1.33 10.09 16.92
353 2 9.57 8.85 13.16
354 2 9.57 8.84 11.65
355 2 13.08 10.94 10.15
356 2 12.21 12.19 10.14
357 2 14.37 13.7 12.41
358 2 13.95 12.46 11.65
359 2 12.21 12.19 14.66
360 2 13.52 12.17 13.9
361 2 11.3 8.55 14.66
362 2 10.43 7.31 14.66
363 2 10.05 12.53 15.4
364 2 10.05 12.52 13.89
365 2 13.47 8.81 9.39
366 2 13.47 8.8 10.91
367 2 13.48 8.8 13.91
368 2 13.05 10.04 14.67
369 2 9.19 11.01 16.9
370 2 8.31 12.24 16.9
371 2 8.31 12.22 12.39
372 2 9.19 10.99 12.4
373 2 10.48 13.72 10.13
374 2 10.05 12.49 10.88
375 2 10.43 7.29 10.15
376 2 11.3 8.53 10.16
377 2 15.2 8.51 12.41
378 2 14.34 7.26 12.4
379 2 15.2 8.51 16.93
380 2 13.89 8.5 16.17
381 2 13.96 12.5 17.65
382 2 13.95 12.5 16.14
383 2 9.57 8.86 16.15
384 2 9.56 8.86 17.67
ITEM: TIMESTEP
200
ITEM: NUMBER OF ATOMS
384
ITEM: BOX BOUNDS pp pp pp
2.4136573719089505e-01 1.5404311792809107e+01
2.3499875751976607e-01 1.4472146532480238e+01
3.2049711169290340e-01 1.7752539918307097e+01
ITEM: ATOMS id type x y z
1 1 1.4001 1.7671 3.28633
2 1 4.97952 4.42708 1.09143
3 1 6.32536 5.25552 3.25179
4 1 5.01654 4.37745 5.45148
5 1 2.55393 0.648336 5.4259
6 1 2.43681 5.30984 5.4843
7 1 4.98279 1.69035 0.97563
8 1 5.08996 1.59703 5.47706
9 1 1.26156 4.41972 7.6122
10 1 1.2945 4.37596 3.26837
11 1 2.49346 5.27429 1.17279
12 1 2.53563 0.841708 1.08803
13 1 6.16289 0.917769 3.22356
14 1 6.29391 0.73361 7.62348
15 1 6.29874 5.32291 7.52781
16 1 1.44896 1.67914 7.60254
17 1 8.80856 1.83136 3.27156
18 1 12.6417 4.37576 1.0244
19 1 13.947 5.29761 3.19765
20 1 12.7547 4.52684 5.42158
21 1 10.0945 0.855944 5.34483
22 1 10.1435 5.22103 5.52358
23 1 12.7717 1.69709 1.09084
24 1 12.7328 1.76135 5.3661
25 1 8.84153 4.19809 7.57528
26 1 8.90381 4.41616 3.25703
27 1 10.1659 5.27914 0.975239
28 1 10.1623 0.896378 1.09159
29 1 14.003 0.720284 3.15811
30 1 14.0092 0.849476 7.62389
31 1 13.9463 5.27708 7.59632
32 1 8.86203 1.58814 7.52482
33 1 1.3056 8.75793 3.23918
34 1 5.0809 11.4532 1.12456
35 1 6.32096 12.3909 3.26165
36 1 4.95621 11.5054 5.42725
37 1 2.50152 8.06476 5.45752
38 1 2.43432 12.3467 5.3594
39 1 5.08332 8.85989 1.14461
40 1 5.14949 8.91879 5.35724
41 1 1.29388 11.5192 7.56838
42 1 1.25089 11.4293 3.16378
43 1 2.56704 12.4023 1.01152
44 1 2.50902 7.86835 1.08406
45 1 6.30466 7.96621 3.33618
46 1 6.23694 7.92007 7.5353
47 1 6.29455 12.3449 7.52679
48 1 1.25573 8.90465 7.64406
49 1 8.76216 8.80601 3.29916
50 1 12.7734 11.4342 1.02931
51 1 13.9245 12.3423 3.21176
52 1 12.7398 11.6668 5.43713
53 1 10.0602 7.94525 5.39854
54 1 10.1231 12.4143 5.37933
55 1 12.6886 8.81072 1.10404
56 1 12.5619 8.79996 5.26139
57 1 8.81505 11.492 7.53779
58 1 8.87985 11.5182 3.24385
59 1 10.14 12.4486 1.06613
60 1 10.139 7.96653 1.19475
61 1 13.9588 7.99314 3.24687
62 1 13.8472 7.98144 7.51342
63 1 14.0893 12.5153 7.65904
64 1 8.7882 8.81175 7.53122
65 1 1.29464 1.67521 11.9664
66 1 5.11055 4.43765 9.73752
67 1 6.346 5.31262 11.866
68 1 5.09917 4.3771 14.0177
69 1 2.6327 0.849113 14.2768
70 1 2.63564 5.35519 14.1261
71 1 5.17237 1.71041 9.83777
72 1 5.16121 1.69615 14.1849
73 1 1.29161 4.42257 16.3658
74 1 1.36815 4.40199 11.9781
75 1 2.59645 5.14408 9.67863
76 1 2.60926 0.910914 9.84651
77 1 6.32817 0.808426 11.9557
78 1 6.46848 0.795665 16.3194
79 1 6.35592 5.31159 16.2814
80 1 1.27715 1.71822 16.3745
81 1 8.82357 1.7035 12.0235
82 1 12.7147 4.38555 9.87127
83 1 13.9148 5.23039 11.9649
84 1 12.703 4.36157 14.0545
85 1 10.117 0.885821 14.1957
86 1 10.1206 5.18954 14.0512
87 1 12.6735 1.77565 9.76533
88 1 12.657 1.76975 14.2098
89 1 8.87615 4.42608 16.3392
90 1 8.83289 4.44978 11.8953
91 1 10.2032 5.34158 9.71046
92 1 10.1421 0.873415 9.70771
93 1 13.8978 0.766867 11.9091
94 1 13.9566 0.889935 16.3078
95 1 13.9257 5.27057 16.2528
96 1 8.84843 1.79899 16.3481
97 1 1.23924 8.85921 11.905
98 1 5.06595 11.6125 9.75449
99 1 6.40087 12.3899 11.9034
100 1 5.18442 11.4757 14.1297
101 1 2.50756 7.99797 14.1556
102 1 2.59016 12.4532 13.9833
103 1 5.00877 8.8888 9.72613
104 1 5.09624 8.79298 14.2627
105 1 1.35354 11.4172 16.2082
106 1 1.29093 11.4312 11.9204
107 1 2.52229 12.4929 9.75933
108 1 2.53725 7.94476 9.71874
109 1 6.17014 8.04294 11.9504
110 1 6.28426 7.98563 16.3794
111 1 6.3548 12.346 16.3219
112 1 1.22937 8.82061 16.3485
113 1 8.82923 8.70768 11.9915
114 1 12.6884 11.5576 9.79391
115 1 13.9314 12.3431 11.9885
116 1 12.7714 11.5458 14.1248
117 1 10.0888 7.89234 14.2343
118 1 10.2169 12.4172 14.2153
119 1 12.6829 8.82298 9.79591
120 1 12.6162 8.85758 14.2045
121 1 8.87752 11.5402 16.2997
122 1 8.92318 11.5069 11.9498
123 1 10.0931 12.445 9.69111
124 1 10.1075 7.94796 9.83061
125 1 13.8241 7.92031 12.0503
126 1 13.8936 7.91499 16.3205
127 1 14.0761 12.39 16.3249
128 1 8.78716 8.82281 16.3463
129 2 0.558235 1.35856 3.33225
130 2 1.18473 2.65848 3.18589
131 2 5.45509 4.89596 1.83513
132 2 5.59406 4.82456 0.345705
133 2 5.84875 4.85052 4.1462
134 2 6.2743 6.28194 3.20827
135 2 3.92374 4.72153 5.35694
136 2 5.51688 4.689 6.38925
137 2 2.11875 1.19412 4.7958
138 2 3.53636 0.896657 5.33855
139 2 2.02862 5.04474 6.40507
140 2 2.45289 6.34854 5.58564
141 2 5.40683 1.34019 1.92413
142 2 5.11305 2.77361 1.06553
143 2 5.12729 2.47922 5.42113
144 2 5.60454 1.33253 6.31709
145 2 1.90993 4.79468 8.48878
146 2 1.22523 3.49455 7.48975
147 2 1.71573 4.77028 4.02018
148 2 2.03841 4.62576 2.51576
149 2 3.45181 5.06385 0.961198
150 2 2.64215 6.08271 1.19713
151 2 3.4421 1.24058 1.14024
152 2 2.02256 1.15518 2.01857
153 2 5.74487 1.15541 4.12207
154 2 6.29665 13.9452 3.23527
155 2 5.73258 0.881709 8.4276
156 2 6.39959 14.0952 7.64635
157 2 7.32424 4.96132 7.55886
158 2 6.24721 6.4567 7.58477
159 2 1.7814 1.36658 6.68463
160 2 0.513581 1.48173 7.59871
161 2 9.04987 2.70366 3.30629
162 2 7.83866 1.66078 3.17214
163 2 12.7135 3.36189 1.0554
164 2 13.0387 4.79274 17.6065
165 2 13.3769 5.0495 2.41855
166 2 14.9206 4.93361 3.14679
167 2 13.0038 4.63272 4.58587
168 2 11.7645 4.59459 5.39018
169 2 10.9562 1.15281 5.40776
170 2 9.62833 1.24189 4.53144
171 2 10.112 6.20715 5.199
172 2 9.75904 5.04943 4.69064
173 2 11.7562 1.53633 1.26173
174 2 13.1438 1.2119 1.96559
175 2 12.9502 2.62346 5.2257
176 2 13.1249 1.50567 6.26342
177 2 9.23998 4.37729 6.60305
178 2 8.85017 3.31247 7.47495
179 2 7.90712 4.80887 3.13626
180 2 9.43954 4.95493 2.3902
181 2 9.56552 5.17528 17.5451
182 2 11.0727 4.86472 0.92736
183 2 9.74419 1.31115 17.6174
184 2 9.66353 1.22752 1.9506
185 2 13.4908 1.09511 3.81446
186 2 13.8276 13.9202 3.20937
187 2 13.3649 1.21286 8.45817
188 2 13.9131 14.0301 7.50816
189 2 13.6993 4.93684 6.70945
190 2 14.8693 5.0449 7.80963
191 2 7.88006 1.3209 7.46522
192 2 9.41494 1.30989 6.68377
193 2 1.75155 8.57411 4.11125
194 2 1.38954 10.0013 3.22971
195 2 4.12325 11.8098 1.15457
196 2 4.97304 10.3266 1.20101
197 2 7.32983 12.1081 3.25493
198 2 5.81974 12.0903 2.48136
199 2 5.66301 11.7542 4.74941
200 2 5.42693 11.8605 6.33214
201 2 2.07947 8.51791 6.29482
202 2 3.4798 8.37181 5.55472
203 2 2.47824 13.3833 5.49379
204 2 3.35495 11.9177 5.43912
205 2 4.31107 8.34986 1.23112
206 2 5.45573 8.67605 17.7195
207 2 5.18913 9.88375 5.28534
208 2 5.66346 8.62352 4.50845
209 2 1.65465 11.7927 6.77546
210 2 1.26737 10.5784 7.67106
211 2 15.3789 11.6924 3.3451
212 2 1.67217 11.7266 4.00483
213 2 2.07265 12.0394 1.71409
214 2 2.69405 13.3624 1.18405
215 2 1.78169 8.36737 1.92048
216 2 2.0859 8.05807 17.6839
217 2 7.17688 8.32348 3.26253
218 2 5.88914 8.49713 2.48641
219 2 5.79613 8.40636 6.75978
220 2 7.06162 8.43578 7.50655
221 2 5.82752 11.9958 8.32348
222 2 7.32662 12.1009 7.57369
223 2 0.280293 8.6169 7.48848
224 2 1.92929 8.48314 8.37545
225 2 9.36953 8.60634 3.98636
226 2 9.40509 8.54136 2.49597
227 2 11.7689 12.0054 1.1066
228 2 12.3811 10.4569 1.22002
229 2 13.5221 11.8958 2.45053
230 2 13.602 11.9391 4.18457
231 2 13.2953 12.2 6.02575
232 2 11.7033 12.0241 5.14349
233 2 11.0541 8.30629 5.46555
234 2 9.5116 8.24635 6.17758
235 2 9.92956 13.2385 5.33181
236 2 9.54927 11.9609 4.64527
237 2 13.2936 8.49453 1.88289
238 2 13.1581 8.56641 17.6251
239 2 13.3479 8.58305 4.47992
240 2 12.6401 9.81479 5.28932
241 2 9.21402 12.1498 8.20929
242 2 9.38211 11.6782 6.65956
243 2 8.63444 10.5272 3.13411
244 2 9.21442 11.7492 2.35882
245 2 10.0833 13.527 0.802056
246 2 9.78189 12.2444 0.332036
247 2 11.0169 8.2565 1.11706
248 2 10.1909 7.00928 1.05138
249 2 15.0257 8.21954 3.25753
250 2 13.8482 6.80519 3.23368
251 2 13.745 7.10296 7.30315
252 2 13.3642 8.53587 6.76673
253 2 14.9074 12.278 7.49861
254 2 13.8802 12.3 8.49063
255 2 8.88975 9.82581 7.43507
256 2 9.24331 8.60997 8.41175
257 2 1.82714 1.39723 11.2197
258 2 0.384417 1.40853 11.9604
259 2 5.58218 4.70059 10.6627
260 2 5.38108 4.8312 8.93237
261 2 6.19857 6.30303 11.8968
262 2 5.97486 4.99675 12.8489
263 2 4.20227 4.51045 13.9607
264 2 5.25361 3.35109 14.0933
265 2 2.34545 1.31146 13.4464
266 2 2.04225 1.08375 14.9711
267 2 2.14059 5.06646 14.9634
268 2 2.61431 6.40192 14.1121
269 2 4.26425 1.50043 9.64697
270 2 5.13275 2.8431 9.67725
271 2 4.12242 1.28287 14.3147
272 2 5.53955 1.34396 14.964
273 2 1.74287 4.78296 17.1997
274 2 1.26353 3.40591 16.3258
275 2 1.94715 4.70629 12.838
276 2 1.49068 3.35298 11.9637
277 2 2.1682 4.92562 10.4972
278 2 3.54511 4.82913 9.7581
279 2 2.11119 0.98205 8.98366
280 2 2.55967 14.2718 9.91387
281 2 5.76333 1.2698 11.137
282 2 5.81403 1.1139 12.8044
283 2 6.50532 14.0428 16.2334
284 2 5.94209 1.13736 17.0059
285 2 7.12736 4.95983 16.1763
286 2 5.88293 5.08369 15.2918
287 2 0.285933 1.39972 16.6669
288 2 1.82765 1.52542 17.0707
289 2 7.97686 1.33751 11.9598
290 2 8.82396 2.55873 11.6678
291 2 13.2693 4.68625 8.95124
292 2 13.0405 4.82152 10.7659
293 2 14.9626 5.28782 11.9462
294 2 13.873 4.79967 12.8541
295 2 12.9847 4.62554 15.0074
296 2 12.8656 3.37574 14.2658
297 2 10.3282 14.103 14.0615
298 2 9.58926 1.26042 13.3164
299 2 10.9655 5.03482 14.1406
300 2 9.78157 4.97516 13.1798
301 2 12.5599 2.67792 9.86244
302 2 11.6934 1.39137 9.80523
303 2 13.0955 1.27747 14.8341
304 2 11.7335 1.35962 14.1346
305 2 9.0407 3.50743 16.463
306 2 9.13327 4.75949 15.4333
307 2 9.34127 4.68789 10.9739
308 2 7.7249 4.86549 12.0425
309 2 9.97967 5.1202 8.8563
310 2 11.0068 4.90378 9.9634
311 2 9.83385 1.29083 10.5452
312 2 9.75378 1.20762 8.95537
313 2 13.4675 1.11628 11.2052
314 2 13.3674 1.20231 12.7839
315 2 13.5146 1.06616 17.2166
316 2 14.1972 14.1259 16.4837
317 2 13.9336 6.2412 16.1302
318 2 14.9526 5.16974 16.2816
319 2 7.90731 1.60112 16.3722
320 2 9.28611 1.25095 15.6688
321 2 1.81763 8.46493 11.2861
322 2 1.28161 9.84819 11.8006
323 2 5.32443 11.8682 10.6497
324 2 4.18223 11.9187 9.63681
325 2 5.66675 12.1391 12.913
326 2 6.29326 13.3155 11.9593
327 2 4.23492 11.8734 14.2405
328 2 4.99493 10.3687 14.212
329 2 3.38871 8.20784 14.0719
330 2 1.99494 8.465 13.4188
331 2 2.40944 13.5113 14.1671
332 2 2.01974 12.1363 14.8784
333 2 5.14555 9.78388 9.72046
334 2 5.67434 8.50737 8.91502
335 2 5.48653 8.57689 13.3441
336 2 5.76134 8.4948 14.9946
337 2 0.535095 11.7249 15.962
338 2 1.66783 12.1696 16.8167
339 2 0.402569 11.7817 11.8992
340 2 1.6771 11.7582 12.9308
341 2 1.92665 12.1653 8.92527
342 2 2.22073 12.2353 10.6586
343 2 2.66718 7.08972 9.70228
344 2 3.49569 8.27168 9.74732
345 2 6.96108 8.36663 11.8638
346 2 5.52359 8.23963 11.2517
347 2 6.4286 6.84516 16.4225
348 2 7.10731 8.41116 16.5147
349 2 5.79132 11.9477 17.2108
350 2 5.87726 11.8794 15.4729
351 2 1.79953 8.5541 15.5987
352 2 1.44428 9.91212 16.2583
353 2 9.12304 8.39239 12.6933
354 2 9.50967 8.28848 11.3616
355 2 12.6404 10.6039 9.89512
356 2 11.6117 11.658 9.71845
357 2 13.9457 13.4925 12.0225
358 2 13.5439 12.2017 10.9661
359 2 11.7949 11.8745 14.2944
360 2 13.2861 11.8173 13.3233
361 2 10.9629 8.32102 14.2033
362 2 10.1076 6.99095 14.335
363 2 9.8841 12.1887 15.092
364 2 9.61732 12.2353 13.4052
365 2 13.1058 8.46779 8.97816
366 2 13.1834 8.60614 10.7011
367 2 12.982 8.68154 13.2733
368 2 12.635 9.83884 14.2168
369 2 8.76374 10.5965 16.1604
370 2 8.02553 11.7829 16.3847
371 2 8.02243 11.7579 12.1142
372 2 8.88793 10.3369 12.1208
373 2 10.1149 13.436 9.69322
374 2 9.79649 12.1342 10.6582
375 2 10.2466 7.06201 9.67824
376 2 11.0703 8.24251 9.87171
377 2 14.7325 8.33852 11.9522
378 2 13.9962 6.94262 11.8623
379 2 14.7848 8.02554 16.2981
380 2 13.4614 8.29356 15.4648
381 2 13.5215 12.0315 17.1289
382 2 13.5577 11.9433 15.5953
383 2 9.06602 8.57237 15.591
384 2 9.32836 8.42148 17.1677
ITEM: TIMESTEP
400
ITEM: NUMBER OF ATOMS
384
ITEM: BOX BOUNDS pp pp pp
4.6654049692420863e-01 1.5179137033075790e+01
4.3348055518130035e-01 1.4273664734818711e+01
6.2313843955395143e-01 1.7449898590446061e+01
ITEM: ATOMS id type x y z
1 1 1.386 1.68218 3.2676
2 1 4.9913 4.47797 1.06132
3 1 6.21794 5.10799 3.22748
4 1 4.8122 4.13355 5.16242
5 1 2.53995 0.538923 5.29834
6 1 2.46923 5.18108 5.23807
7 1 4.85644 1.75094 1.20364
8 1 4.94468 1.5744 5.30928
9 1 1.19571 4.36581 7.3936
10 1 1.21209 4.33232 3.09041
11 1 2.52083 5.06508 1.0767
12 1 2.4747 0.960677 1.09012
13 1 6.14135 0.864261 3.20688
14 1 6.2833 0.841024 7.34968
15 1 6.15982 5.12271 7.17936
16 1 1.44066 1.73272 7.27916
17 1 8.55351 1.76477 3.18454
18 1 12.209 4.14178 0.805359
19 1 13.3769 4.97872 3.00942
20 1 12.2239 4.11313 5.10459
21 1 9.88739 0.705185 5.12659
22 1 9.85826 5.12313 5.23276
23 1 12.3251 1.53678 0.974859
24 1 12.3641 1.51351 5.23208
25 1 8.57596 4.12648 7.36172
26 1 8.62135 4.40259 3.06216
27 1 9.87344 5.24783 0.83528
28 1 9.79163 0.861546 1.12266
29 1 13.6669 0.904109 3.09022
30 1 13.6619 0.80439 7.45153
31 1 13.4896 5.20942 7.1747
32 1 8.80795 1.4487 7.2986
33 1 1.27656 8.52312 3.16435
34 1 4.98893 11.1248 1.05302
35 1 6.19251 12.0449 3.01194
36 1 4.89172 11.3022 5.1253
37 1 2.48345 7.73945 5.31408
38 1 2.40082 11.849 5.24193
39 1 4.7722 8.59668 1.03148
40 1 4.86432 8.59741 5.12656
41 1 1.22819 11.1113 7.3704
42 1 1.23628 11.2019 3.07895
43 1 2.5786 12.1921 1.09096
44 1 2.38745 7.58051 1.01166
45 1 6.26238 7.71265 3.01921
46 1 6.11995 7.80922 7.33297
47 1 6.06839 11.9932 7.35462
48 1 1.21637 8.4381 7.36294
49 1 8.69608 8.55894 3.13732
50 1 12.3508 11.1769 1.05841
51 1 13.4675 12.1857 3.09814
52 1 12.3061 11.3577 5.30073
53 1 9.95129 7.67515 5.3004
54 1 9.75535 12.0043 5.27129
55 1 12.4038 8.59927 1.07055
56 1 12.2183 8.76082 5.11795
57 1 8.45253 11.2064 7.30724
58 1 8.74277 11.2222 3.11334
59 1 9.91512 12.108 1.04735
60 1 9.87191 7.71224 0.983543
61 1 13.5282 7.68143 3.15019
62 1 13.3959 7.8478 7.31725
63 1 13.5052 12.1342 7.52269
64 1 8.46743 8.67195 7.29206
65 1 1.42746 1.61568 11.5771
66 1 5.01025 4.26785 9.39444
67 1 6.21833 5.2131 11.5449
68 1 5.03815 4.40674 13.6142
69 1 2.51591 0.779837 13.6985
70 1 2.44185 5.19626 13.7157
71 1 5.00033 1.64454 9.5946
72 1 4.94404 1.82703 13.8171
73 1 1.13252 4.27955 15.6912
74 1 1.35716 4.23517 11.6707
75 1 2.51576 5.19562 9.56565
76 1 2.58639 0.78946 9.43141
77 1 6.19012 0.797975 11.7736
78 1 6.06723 0.756608 15.885
79 1 6.28339 5.19012 15.7556
80 1 1.23146 1.7032 15.7495
81 1 8.52389 1.74932 11.5305
82 1 12.3485 4.28152 9.41333
83 1 13.5404 5.10909 11.6166
84 1 12.2219 4.15081 13.5758
85 1 9.74277 0.763896 13.6005
86 1 9.73371 5.0168 13.455
87 1 12.2266 1.7476 9.54353
88 1 12.238 1.54264 13.8118
89 1 8.71735 4.07985 15.6592
90 1 8.54522 4.27289 11.3701
91 1 9.84695 5.18288 9.24984
92 1 9.93073 0.718565 9.5242
93 1 13.6303 0.89284 11.5752
94 1 13.562 0.676253 15.893
95 1 13.4088 5.18989 15.5977
96 1 8.61928 1.56338 15.7
97 1 1.20098 8.70521 11.6196
98 1 4.89521 11.214 9.54091
99 1 6.13788 11.9595 11.6251
100 1 4.83389 11.2347 13.7171
101 1 2.42743 7.82458 13.6397
102 1 2.44579 11.9591 13.5689
103 1 4.70301 8.63462 9.43069
104 1 4.74634 8.6339 13.7505
105 1 1.34585 11.0564 15.7818
106 1 1.22129 11.3165 11.5277
107 1 2.44683 12.1165 9.40968
108 1 2.3882 7.66698 9.42588
109 1 6.10026 7.95943 11.5166
110 1 6.12672 7.74592 15.7611
111 1 6.24635 12.0639 15.812
112 1 1.25191 8.57916 15.72
113 1 8.70329 8.59437 11.4796
114 1 12.1909 11.2009 9.4457
115 1 13.504 12.2227 11.4834
116 1 12.1644 11.2275 13.5447
117 1 9.77493 7.66158 13.6852
118 1 9.79228 12.0179 13.477
119 1 12.2376 8.61174 9.49324
120 1 12.2257 8.62343 13.5779
121 1 8.64938 11.2741 15.8564
122 1 8.53333 11.0893 11.5122
123 1 9.74508 11.9767 9.46251
124 1 9.82813 7.73059 9.3895
125 1 13.5053 7.66096 11.5556
126 1 13.4747 7.74359 15.6976
127 1 13.5887 11.8565 15.7831
128 1 8.5718 8.56493 15.7401
129 2 0.478872 1.46438 3.32191
130 2 1.36178 2.67166 3.19941
131 2 5.39 4.4887 1.94074
132 2 5.60934 4.74998 17.118
133 2 5.62804 4.72897 4.09832
134 2 6.0879 6.13719 3.08142
135 2 3.7529 4.5936 5.19038
136 2 5.28987 4.68804 5.99099
137 2 2.22389 1.09656 4.45917
138 2 3.57057 0.771598 5.13986
139 2 1.95484 4.81409 6.00607
140 2 2.31413 6.10533 4.97828
141 2 5.3237 1.3602 1.90978
142 2 4.83568 2.8422 1.07709
143 2 4.83711 2.57067 5.29003
144 2 5.45 1.33893 6.16951
145 2 1.75944 4.57371 8.27983
146 2 1.24576 3.48273 7.35863
147 2 1.74204 4.7129 3.74702
148 2 1.64214 4.6302 2.24648
149 2 3.49922 4.82875 1.16149
150 2 2.60264 6.07608 1.02701
151 2 3.48064 1.44892 1.14166
152 2 1.98715 1.21238 1.88675
153 2 5.67212 1.16902 4.16415
154 2 6.20248 13.6963 3.12559
155 2 5.6104 1.19867 8.22552
156 2 5.91916 13.7103 7.37304
157 2 7.0727 4.89701 7.32592
158 2 6.11276 6.13722 7.369
159 2 1.89735 1.3468 6.51882
160 2 0.553796 1.60747 7.42521
161 2 8.34737 2.66616 3.1311
162 2 7.63854 1.44517 3.09486
163 2 12.1829 3.13908 0.680571
164 2 12.5865 4.58316 16.8087
165 2 13.0407 4.69151 2.10567
166 2 14.2395 4.71147 2.91825
167 2 12.588 4.37603 4.25223
168 2 11.2653 4.57873 5.13129
169 2 10.7817 0.732112 5.53099
170 2 9.5672 1.22641 4.35857
171 2 9.8233 6.04173 5.19088
172 2 9.27081 4.72299 4.17852
173 2 11.3266 1.36786 1.01175
174 2 12.6865 1.4626 1.90159
175 2 12.4118 2.5662 5.35751
176 2 13.0348 1.19458 6.08449
177 2 9.06631 4.40575 6.42
178 2 8.67659 3.00556 7.26317
179 2 7.60675 4.51862 3.1076
180 2 9.00047 4.65678 2.21204
181 2 9.54947 4.78046 16.785
182 2 10.6083 4.65951 0.876453
183 2 9.28487 1.17679 17.2093
184 2 9.40742 1.28097 1.89073
185 2 13.027 1.14685 3.90538
186 2 13.56 13.5394 3.22148
187 2 13.1195 1.23407 8.07548
188 2 13.4402 13.4788 7.75586
189 2 13.1869 4.58107 6.59373
190 2 14.4142 5.00574 7.35218
191 2 7.75992 1.36971 7.35598
192 2 9.14728 1.14747 6.41684
193 2 1.68598 8.37199 3.8784
194 2 1.44958 9.64672 3.10897
195 2 4.00981 11.4753 0.978443
196 2 4.94528 10.1399 1.02768
197 2 7.20185 11.7459 3.05505
198 2 5.79976 11.6428 2.22183
199 2 5.61839 11.5883 4.34847
200 2 5.33097 11.545 6.17546
201 2 1.81675 8.13275 5.87105
202 2 3.47861 8.17197 5.40833
203 2 2.46961 12.8785 5.40985
204 2 3.36829 11.5294 5.06334
205 2 3.83717 8.32375 1.09065
206 2 5.17634 8.29352 16.9604
207 2 4.80395 9.65499 5.03435
208 2 5.36215 8.29373 4.19572
209 2 1.80788 11.157 6.62931
210 2 1.08359 10.1921 7.41213
211 2 14.9396 11.5418 3.26699
212 2 1.83395 11.4196 3.92008
213 2 2.01092 11.9248 1.80987
214 2 2.6658 13.2273 0.990547
215 2 1.72948 8.07356 1.8008
216 2 1.98313 7.89728 16.9845
217 2 7.23128 7.91258 3.15309
218 2 5.6704 7.79901 2.25625
219 2 5.54822 8.02834 6.21086
220 2 7.05621 8.26028 7.29017
221 2 5.64931 11.7677 8.08197
222 2 7.03397 11.6626 7.22308
223 2 14.9078 8.16294 7.35785
224 2 1.51714 8.17037 8.36107
225 2 8.94413 8.15298 3.99942
226 2 9.33215 8.31038 2.30633
227 2 11.3222 11.6432 0.847218
228 2 12.2736 10.2181 0.955102
229 2 12.972 11.7577 2.31062
230 2 13.1417 12.0049 3.94863
231 2 12.8456 11.6767 6.00409
232 2 11.1484 11.6047 5.34838
233 2 10.8184 8.10856 5.26638
234 2 9.30399 7.88524 6.13349
235 2 9.8559 13.089 5.1432
236 2 9.39797 11.5663 4.32054
237 2 13.0477 8.4247 2.03367
238 2 13.045 8.36898 17.1411
239 2 12.5395 8.46088 4.25328
240 2 12.1836 9.8853 5.14278
241 2 8.85914 11.6912 8.0099
242 2 8.9934 11.4578 6.52784
243 2 8.75982 10.3417 3.087
244 2 9.25924 11.5883 2.29688
245 2 10.0841 13.0729 0.953333
246 2 9.62786 11.6938 17.0326
247 2 10.772 8.10736 1.21997
248 2 9.85128 6.44463 0.897822
249 2 14.5244 7.8564 3.09595
250 2 13.4811 6.62806 3.30145
251 2 13.1 6.88245 7.21344
252 2 12.9987 8.1252 6.43259
253 2 14.4698 11.7322 7.29089
254 2 12.9286 11.6807 8.1693
255 2 8.57966 9.59683 7.5647
256 2 8.91105 8.20174 8.04151
257 2 1.88047 1.26058 10.5886
258 2 15.1149 1.35232 11.6157
259 2 5.51871 4.44782 10.1405
260 2 5.44262 4.66523 8.55926
261 2 5.99766 6.11366 11.5312
262 2 5.6993 5.05375 12.3018
263 2 4.07796 4.90478 13.7754
264 2 4.81084 3.51489 13.6425
265 2 2.03014 1.12827 12.8077
266 2 2.09424 1.21846 14.3283
267 2 1.96665 4.86593 14.6183
268 2 2.53435 6.2344 13.7887
269 2 4.05264 1.44153 9.62415
270 2 4.8959 2.59223 9.32951
271 2 4.05124 1.49867 13.9524
272 2 5.47201 1.54509 14.6036
273 2 1.68236 4.55029 16.5231
274 2 1.08781 3.24531 15.7482
275 2 1.84242 4.73125 12.5831
276 2 1.3892 3.06672 11.7012
277 2 2.10568 4.94205 10.4328
278 2 3.47263 4.90342 9.46263
279 2 2.4166 1.06328 8.56149
280 2 2.45886 13.6313 9.33921
281 2 5.62965 1.03554 11.066
282 2 5.70846 1.17646 12.5575
283 2 5.91336 13.6284 15.8276
284 2 5.4957 1.31354 16.6196
285 2 7.33511 4.97771 15.8633
286 2 5.84479 4.81882 14.9806
287 2 0.512561 1.09287 15.9034
288 2 1.6582 1.38932 16.7089
289 2 7.58632 1.39371 11.4284
290 2 8.60966 2.61261 11.6232
291 2 12.8549 4.77307 8.47487
292 2 12.8154 4.60716 10.286
293 2 14.5273 4.80738 11.7642
294 2 12.9237 4.77354 12.2543
295 2 12.9171 4.49655 14.3153
296 2 12.2996 3.23615 13.6634
297 2 9.68744 13.6289 13.6644
298 2 9.31144 1.23764 12.7671
299 2 10.6078 4.68068 13.4348
300 2 9.20146 4.80724 12.6459
301 2 12.2927 2.59588 9.55243
302 2 11.3994 1.43751 9.61648
303 2 12.5379 1.30365 14.5435
304 2 11.284 1.2954 13.7413
305 2 8.71582 3.10499 15.6626
306 2 8.95917 4.46769 14.6955
307 2 9.14834 4.53315 10.5963
308 2 7.64682 4.57873 11.3185
309 2 9.51087 4.7158 8.45794
310 2 10.7572 4.82255 9.22334
311 2 9.36429 1.19777 10.2917
312 2 9.38324 1.00376 8.70861
313 2 13.2048 1.0395 10.6459
314 2 13.1234 1.16376 12.2784
315 2 13.1931 1.09984 16.6686
316 2 13.3463 13.5455 16.0529
317 2 13.2028 6.15266 15.2976
318 2 14.4932 4.9433 15.7544
319 2 7.58169 1.38581 15.6685
320 2 9.31567 1.16792 14.8043
321 2 1.69417 8.11045 10.7617
322 2 1.18765 9.82962 11.5777
323 2 5.29899 11.5136 10.4388
324 2 3.99722 11.4949 9.47971
325 2 5.50681 11.7062 12.3774
326 2 6.07009 12.9025 11.6844
327 2 3.81372 11.6182 13.8183
328 2 4.79731 10.2672 13.7073