ITEM: TIMESTEP
0
ITEM: NUMBER OF ATOMS
384
ITEM: BOX BOUNDS pp pp pp
0.0000000000000000e+00 1.5645677530000000e+01
0.0000000000000000e+00 1.4707145290000000e+01
0.0000000000000000e+00 1.8073037029999998e+01
ITEM: ATOMS id type x y z
1 1 1.38 1.76 3.37
2 1 5.2 4.47 1.11
3 1 6.59 5.39 3.31
4 1 5.28 4.49 5.56
5 1 2.59 0.84 5.67
6 1 2.69 5.43 5.56
7 1 5.2 1.71 1.07
8 1 5.2 1.73 5.58
9 1 1.32 4.61 7.82
10 1 1.3 4.52 3.36
11 1 2.61 5.41 1.1
12 1 2.59 0.82 1.07
13 1 6.54 0.87 3.33
14 1 6.54 0.88 7.83
15 1 6.51 5.4 7.86
16 1 1.35 1.85 7.92
17 1 9.2 1.76 3.37
18 1 13.05 4.55 1.15
19 1 14.35 5.46 3.4
20 1 13.1 4.49 5.66
21 1 10.41 0.84 5.67
22 1 10.51 5.43 5.65
23 1 13.07 1.79 1.07
24 1 13.02 1.73 5.58
25 1 9.15 4.61 7.91
26 1 9.2 4.52 3.4
27 1 10.45 5.49 1.15
28 1 10.49 0.82 1.12
29 1 14.36 0.87 3.33
30 1 14.36 0.88 7.83
31 1 14.36 5.48 7.9
32 1 9.17 1.85 7.92
33 1 1.3 9.11 3.32
34 1 5.3 11.9 1.11
35 1 6.53 12.81 3.4
36 1 5.2 11.84 5.61
37 1 2.59 8.19 5.58
38 1 2.61 12.79 5.61
39 1 5.25 9.14 1.16
40 1 5.2 9.08 5.67
41 1 1.32 11.96 7.91
42 1 1.38 11.87 3.31
43 1 2.69 12.77 1.06
44 1 2.67 8.17 1.12
45 1 6.49 8.14 3.42
46 1 6.49 8.16 7.92
47 1 6.53 12.83 7.81
48 1 1.35 9.21 7.83
49 1 9.09 9.19 3.37
50 1 13.13 11.9 1.11
51 1 14.44 12.82 3.35
52 1 13.1 11.84 5.56
53 1 10.41 8.19 5.58
54 1 10.51 12.79 5.65
55 1 12.99 9.14 1.12
56 1 13.02 9.08 5.67
57 1 9.12 11.89 7.86
58 1 9.15 11.95 3.4
59 1 10.51 12.77 1.15
60 1 10.38 8.25 1.12
61 1 14.29 8.22 3.37
62 1 14.36 8.24 7.92
63 1 14.36 12.83 7.81
64 1 9.12 9.13 7.83
65 1 1.35 1.83 12.45
66 1 5.2 4.47 10.14
67 1 6.59 5.39 12.34
68 1 5.3 4.56 14.65
69 1 2.67 0.84 14.66
70 1 2.69 5.43 14.6
71 1 5.28 1.71 10.15
72 1 5.25 1.81 14.61
73 1 1.32 4.61 16.85
74 1 1.32 4.59 12.35
75 1 2.63 5.49 10.09
76 1 2.64 0.89 10.2
77 1 6.57 0.79 12.41
78 1 6.54 0.88 16.87
79 1 6.53 5.48 16.94
80 1 1.35 1.85 16.86
81 1 9.2 1.76 12.41
82 1 13.02 4.47 10.14
83 1 14.35 5.46 12.34
84 1 13.05 4.57 14.6
85 1 10.46 0.91 14.71
86 1 10.46 5.51 14.69
87 1 13.1 1.71 10.15
88 1 13.07 1.81 14.61
89 1 9.15 4.61 16.94
90 1 9.2 4.52 12.44
91 1 10.45 5.49 10.18
92 1 10.49 0.82 10.16
93 1 14.39 0.79 12.41
94 1 14.36 0.88 16.87
95 1 14.33 5.4 16.89
96 1 9.17 1.85 16.96
97 1 1.3 9.11 12.45
98 1 5.28 11.83 10.1
99 1 6.59 12.74 12.34
100 1 5.3 11.92 14.65
101 1 2.59 8.19 14.71
102 1 2.69 12.79 14.6
103 1 5.2 9.07 10.2
104 1 5.17 9.16 14.66
105 1 1.38 11.89 16.85
106 1 1.38 11.87 12.35
107 1 2.71 12.84 10.14
108 1 2.56 8.25 10.16
109 1 6.49 8.14 12.46
110 1 6.46 8.24 16.91
111 1 6.61 12.83 16.89
112 1 1.3 9.13 16.96
113 1 9.09 9.19 12.41
114 1 13.13 11.9 10.14
115 1 14.41 12.74 12.44
116 1 13.1 11.84 14.69
117 1 10.38 8.27 14.66
118 1 10.53 12.86 14.64
119 1 12.99 9.14 10.15
120 1 13.02 9.08 14.7
121 1 9.23 11.96 16.9
122 1 9.23 11.95 12.39
123 1 10.51 12.77 10.09
124 1 10.38 8.25 10.16
125 1 14.29 8.22 12.41
126 1 14.31 8.16 16.96
127 1 14.44 12.83 16.89
128 1 9.09 9.21 16.91
129 2 0.46 1.48 3.37
130 2 1.33 2.71 3.37
131 2 5.68 4.81 1.86
132 2 5.67 4.81 0.35
133 2 6.13 5.1 4.1
134 2 6.56 6.34 3.34
135 2 4.38 4.84 5.6
136 2 5.7 4.83 6.36
137 2 2.17 1.18 4.88
138 2 3.49 1.17 5.63
139 2 2.23 5.15 6.35
140 2 2.65 6.39 5.59
141 2 5.65 1.43 1.86
142 2 5.23 2.67 1.1
143 2 5.23 2.69 5.61
144 2 5.65 1.45 6.37
145 2 1.78 4.88 8.61
146 2 1.33 3.65 7.85
147 2 1.78 4.85 4.11
148 2 1.78 4.85 2.6
149 2 3.52 5.14 1.1
150 2 2.64 6.37 1.11
151 2 3.49 1.15 1.11
152 2 2.17 1.16 1.87
153 2 6.09 1.14 4.12
154 2 6.53 14.6171 3.37
155 2 6.09 1.15 8.63
156 2 6.53 14.6371 7.86
157 2 7.43 5.14 7.86
158 2 6.53 6.36 7.86
159 2 1.77 1.51 7.13
160 2 0.46 1.51 7.89
161 2 9.16 2.71 3.37
162 2 8.28 1.48 3.37
163 2 13.06 3.59 1.12
164 2 13.5 4.82 0.36
165 2 13.94 5.12 2.61
166 2 15.25 5.14 3.36
167 2 13.52 4.82 4.86
168 2 12.21 4.84 5.62
169 2 11.31 1.17 5.63
170 2 10 1.18 4.88
171 2 10.47 6.39 5.62
172 2 10.05 5.15 4.86
173 2 12.18 1.46 1.11
174 2 13.49 1.45 1.86
175 2 13.05 2.69 5.61
176 2 13.48 1.45 6.37
177 2 9.61 4.88 7.11
178 2 9.16 3.65 7.88
179 2 8.3 4.84 3.36
180 2 9.61 4.85 2.61
181 2 10.04 5.17 0.35
182 2 11.35 5.14 1.11
183 2 10.02 1.16 0.36
184 2 10.02 1.16 1.88
185 2 13.91 1.14 4.12
186 2 14.35 14.6171 3.37
187 2 13.91 1.15 8.63
188 2 14.36 14.6371 7.86
189 2 13.94 5.14 7.11
190 2 15.26 5.16 7.86
191 2 8.28 1.51 7.89
192 2 9.59 1.51 7.13
193 2 1.75 8.83 4.12
194 2 1.33 10.07 3.36
195 2 4.39 12.19 1.1
196 2 5.25 10.94 1.11
197 2 7.43 12.49 3.36
198 2 6.12 12.48 2.61
199 2 5.68 12.17 4.85
200 2 5.68 12.18 6.37
201 2 2.17 8.54 6.37
202 2 3.49 8.52 5.61
203 2 2.64 13.74 5.61
204 2 3.52 12.51 5.61
205 2 4.35 8.81 1.13
206 2 5.66 8.81 0.36
207 2 5.23 10.04 5.63
208 2 5.65 8.8 4.88
209 2 1.78 12.24 7.11
210 2 1.34 11.01 7.88
211 2 0.48 12.2 3.35
212 2 1.79 12.21 4.11
213 2 2.23 12.49 1.85
214 2 2.65 13.72 1.09
215 2 2.19 8.52 1.88
216 2 2.2 8.52 0.36
217 2 7.38 8.49 3.39
218 2 6.07 8.48 2.63
219 2 6.07 8.5 7.13
220 2 7.38 8.51 7.89
221 2 6.12 12.49 8.61
222 2 7.43 12.51 7.85
223 2 0.46 8.86 7.86
224 2 1.77 8.86 8.62
225 2 9.57 8.85 4.13
226 2 9.57 8.84 2.61
227 2 12.21 12.19 1.1
228 2 13.08 10.94 1.11
229 2 13.95 12.48 2.6
230 2 13.95 12.48 4.11
231 2 13.52 12.18 6.36
232 2 12.21 12.19 5.6
233 2 11.31 8.52 5.61
234 2 10 8.54 6.37
235 2 10.47 13.74 5.62
236 2 10.05 12.51 4.86
237 2 13.47 8.8 1.87
238 2 13.47 8.81 0.36
239 2 13.48 8.8 4.88
240 2 13.05 10.04 5.63
241 2 9.6 12.22 8.62
242 2 9.6 12.22 7.11
243 2 9.16 10.99 3.37
244 2 9.61 12.22 2.61
245 2 10.48 13.72 1.13
246 2 10.05 12.49 0.35
247 2 11.3 8.53 1.12
248 2 10.43 7.29 1.11
249 2 15.2 8.51 3.37
250 2 14.34 7.26 3.37
251 2 14.36 7.28 7.88
252 2 13.91 8.52 7.13
253 2 15.26 12.51 7.85
254 2 13.94 12.49 8.61
255 2 9.15 10.09 7.86
256 2 9.57 8.85 8.62
257 2 1.77 1.49 11.66
258 2 0.46 1.49 12.42
259 2 5.68 4.81 10.9
260 2 5.67 4.81 9.38
261 2 6.56 6.34 12.38
262 2 6.13 5.1 13.14
263 2 4.39 4.85 14.65
264 2 5.25 3.61 14.65
265 2 2.19 1.18 13.9
266 2 2.19 1.18 15.42
267 2 2.23 5.15 15.39
268 2 2.65 6.39 14.63
269 2 4.36 1.44 10.15
270 2 5.24 2.67 10.15
271 2 4.35 1.48 14.65
272 2 5.66 1.47 15.41
273 2 1.78 4.88 17.65
274 2 1.33 3.65 16.89
275 2 1.78 4.87 13.14
276 2 1.34 3.64 12.39
277 2 2.21 5.16 10.89
278 2 3.52 5.14 10.13
279 2 2.19 1.18 9.41
280 2 2.63 14.6471 10.16
281 2 6.09 1.13 11.65
282 2 6.09 1.14 13.17
283 2 6.53 14.6371 16.9
284 2 6.09 1.15 17.67
285 2 7.43 5.16 16.9
286 2 6.12 5.14 16.15
287 2 0.46 1.51 16.89
288 2 1.77 1.51 17.66
289 2 8.28 1.48 12.41
290 2 9.16 2.71 12.4
291 2 13.5 4.81 9.38
292 2 13.5 4.81 10.9
293 2 15.25 5.14 12.39
294 2 13.94 5.13 13.14
295 2 13.51 4.84 15.39
296 2 13.06 3.61 14.64
297 2 10.46 14.6671 14.67
298 2 10.01 1.19 13.91
299 2 11.35 5.16 14.65
300 2 10.04 5.17 13.9
301 2 13.07 2.67 10.15
302 2 12.18 1.44 10.15
303 2 13.49 1.47 15.41
304 2 12.18 1.48 14.65
305 2 9.16 3.65 16.91
306 2 9.61 4.88 16.15
307 2 9.61 4.85 11.64
308 2 8.3 4.84 12.4
309 2 10.04 5.17 9.39
310 2 11.35 5.14 10.15
311 2 10.02 1.16 10.91
312 2 10.02 1.16 9.4
313 2 13.92 1.13 11.65
314 2 13.92 1.14 13.17
315 2 13.91 1.15 17.67
316 2 14.36 14.6371 16.9
317 2 14.36 6.36 16.9
318 2 15.25 5.14 16.9
319 2 8.28 1.51 16.93
320 2 9.59 1.51 16.17
321 2 1.75 8.83 11.66
322 2 1.33 10.07 12.41
323 2 5.7 12.16 10.89
324 2 4.38 12.17 10.13
325 2 6.13 12.46 13.14
326 2 6.56 13.7 12.38
327 2 4.39 12.21 14.65
328 2 5.25 10.96 14.65
329 2 3.49 8.52 14.67
330 2 2.17 8.53 13.91
331 2 2.65 13.74 14.63
332 2 2.23 12.5 15.39
333 2 5.22 10.02 10.17
334 2 5.65 8.79 9.4
335 2 5.65 8.81 13.9
336 2 5.65 8.82 15.42
337 2 0.48 12.22 16.89
338 2 1.79 12.22 17.65
339 2 0.48 12.2 12.39
340 2 1.79 12.21 13.14
341 2 2.23 12.52 9.38
342 2 2.23 12.51 10.89
343 2 2.61 7.29 10.15
344 2 3.48 8.53 10.16
345 2 7.38 8.49 12.42
346 2 6.07 8.48 11.66
347 2 6.52 7.28 16.91
348 2 7.37 8.53 16.91
349 2 6.14 12.5 17.65
350 2 6.13 12.5 16.14
351 2 1.75 8.84 16.16
352 2 1.33 10.09 16.92
353 2 9.57 8.85 13.16
354 2 9.57 8.84 11.65
355 2 13.08 10.94 10.15
356 2 12.21 12.19 10.14
357 2 14.37 13.7 12.41
358 2 13.95 12.46 11.65
359 2 12.21 12.19 14.66
360 2 13.52 12.17 13.9
361 2 11.3 8.55 14.66
362 2 10.43 7.31 14.66
363 2 10.05 12.53 15.4
364 2 10.05 12.52 13.89
365 2 13.47 8.81 9.39
366 2 13.47 8.8 10.91
367 2 13.48 8.8 13.91
368 2 13.05 10.04 14.67
369 2 9.19 11.01 16.9
370 2 8.31 12.24 16.9
371 2 8.31 12.22 12.39
372 2 9.19 10.99 12.4
373 2 10.48 13.72 10.13
374 2 10.05 12.49 10.88
375 2 10.43 7.29 10.15
376 2 11.3 8.53 10.16
377 2 15.2 8.51 12.41
378 2 14.34 7.26 12.4
379 2 15.2 8.51 16.93
380 2 13.89 8.5 16.17
381 2 13.96 12.5 17.65
382 2 13.95 12.5 16.14
383 2 9.57 8.86 16.15
384 2 9.56 8.86 17.67
ITEM: TIMESTEP
200
ITEM: NUMBER OF ATOMS
384
ITEM: BOX BOUNDS pp pp pp
2.4136573719089505e-01 1.5404311792809107e+01
2.3499875751976607e-01 1.4472146532480238e+01
3.2049711169290340e-01 1.7752539918307097e+01
ITEM: ATOMS id type x y z
1 1 1.38077 1.74717 3.27851
2 1 4.97958 4.45953 1.05656
3 1 6.32346 5.2593 3.25041
4 1 5.00896 4.40766 5.44595
5 1 2.5634 0.658366 5.43749
6 1 2.40567 5.24821 5.48497
7 1 5.03119 1.68572 0.984745
8 1 5.08529 1.60367 5.44152
9 1 1.26201 4.42506 7.61674
10 1 1.25276 4.40188 3.30486
11 1 2.48016 5.27086 1.17323
12 1 2.52495 0.84205 1.07892
13 1 6.18223 0.884699 3.2217
14 1 6.33925 0.736814 7.62107
15 1 6.3147 5.30928 7.53567
16 1 1.3923 1.7052 7.62588
17 1 8.8383 1.84417 3.2628
18 1 12.5617 4.36596 1.03607
19 1 13.9444 5.28598 3.21518
20 1 12.7667 4.46969 5.39714
21 1 10.0799 0.85637 5.33109
22 1 10.1749 5.23939 5.49489
23 1 12.7419 1.67297 1.12617
24 1 12.7189 1.71592 5.40356
25 1 8.86585 4.22486 7.56818
26 1 8.92631 4.45265 3.20718
27 1 10.1764 5.30417 1.00127
28 1 10.1746 0.912823 1.07358
29 1 13.9601 0.721207 3.14858
30 1 14.0026 0.873207 7.61674
31 1 13.95 5.26642 7.58129
32 1 8.88683 1.59168 7.55326
33 1 1.3026 8.76704 3.25516
34 1 5.10675 11.4372 1.14271
35 1 6.29772 12.4072 3.25825
36 1 4.9879 11.5444 5.42629
37 1 2.52029 8.03764 5.4737
38 1 2.47952 12.3534 5.36026
39 1 5.10385 8.84854 1.12231
40 1 5.15054 8.93755 5.41394
41 1 1.29636 11.5099 7.52353
42 1 1.25978 11.4675 3.17314
43 1 2.60758 12.3852 1.00399
44 1 2.51612 7.89416 1.07426
45 1 6.30609 7.97232 3.32109
46 1 6.23698 7.91829 7.54016
47 1 6.29789 12.337 7.52206
48 1 1.2798 8.91593 7.6312
49 1 8.76361 8.84132 3.27486
50 1 12.6985 11.4401 1.05987
51 1 13.9144 12.3792 3.17595
52 1 12.6904 11.6647 5.42274
53 1 10.0393 7.9248 5.39407
54 1 10.1551 12.42 5.40038
55 1 12.6781 8.79026 1.08605
56 1 12.5492 8.8178 5.26497
57 1 8.83046 11.5284 7.50659
58 1 8.89455 11.5008 3.23817
59 1 10.1631 12.4442 1.06585
60 1 10.1151 8.00898 1.1901
61 1 13.9886 7.9481 3.23097
62 1 13.8478 7.96899 7.56117
63 1 14.1084 12.5031 7.62839
64 1 8.78066 8.81022 7.51561
65 1 1.29458 1.69378 11.9633
66 1 5.10779 4.45541 9.72795
67 1 6.3556 5.31771 11.8631
68 1 5.11002 4.36504 14.0316
69 1 2.55977 0.817724 14.2853
70 1 2.62519 5.35907 14.1026
71 1 5.15134 1.74779 9.8209
72 1 5.11016 1.68001 14.2049
73 1 1.2794 4.37004 16.3426
74 1 1.35306 4.4005 11.9914
75 1 2.58903 5.14484 9.68415
76 1 2.60536 0.965159 9.82874
77 1 6.31519 0.84358 11.9892
78 1 6.45545 0.851319 16.3508
79 1 6.41108 5.31824 16.2925
80 1 1.27167 1.69852 16.3468
81 1 8.81329 1.70899 12.0143
82 1 12.7282 4.38584 9.84802
83 1 13.9591 5.23963 11.9387
84 1 12.7155 4.34906 14.0542
85 1 10.1063 0.902293 14.2186
86 1 10.1272 5.17944 14.0527
87 1 12.6843 1.72918 9.7572
88 1 12.6721 1.75899 14.1774
89 1 8.84524 4.42028 16.3513
90 1 8.84269 4.44221 11.8836
91 1 10.1993 5.26982 9.6524
92 1 10.1232 0.859664 9.69888
93 1 13.9494 0.78752 11.8762
94 1 13.983 0.924161 16.2886
95 1 13.9229 5.27155 16.2606
96 1 8.88469 1.8128 16.3296
97 1 1.19936 8.83093 11.9359
98 1 5.0796 11.6193 9.73148
99 1 6.381 12.3722 11.9054
100 1 5.17732 11.4434 14.1662
101 1 2.52214 7.99498 14.1604
102 1 2.61643 12.4468 14.0289
103 1 4.99813 8.84575 9.72308
104 1 5.01976 8.77737 14.224
105 1 1.38379 11.418 16.1839
106 1 1.29857 11.477 11.9583
107 1 2.52257 12.4949 9.75423
108 1 2.5205 7.92315 9.75652
109 1 6.12845 8.02471 11.9947
110 1 6.28339 7.99333 16.3682
111 1 6.39727 12.3516 16.3602
112 1 1.22535 8.80986 16.3362
113 1 8.80517 8.73067 11.9804
114 1 12.6681 11.5601 9.79524
115 1 13.9094 12.3353 11.9518
116 1 12.8037 11.5061 14.1183
117 1 10.0542 7.88867 14.221
118 1 10.2295 12.4394 14.224
119 1 12.6912 8.82211 9.80639
120 1 12.6009 8.82894 14.1907
121 1 8.93401 11.5599 16.298
122 1 8.91391 11.443 11.9338
123 1 10.0701 12.4904 9.69987
124 1 10.1478 7.98871 9.83903
125 1 13.7761 7.97502 12.0306
126 1 13.8953 7.95375 16.3174
127 1 14.107 12.4025 16.3516
128 1 8.80882 8.84167 16.3499
129 2 0.438974 1.31871 3.39801
130 2 1.07592 2.6784 3.19677
131 2 5.36033 4.8395 1.92255
132 2 5.58676 4.76282 0.471933
133 2 5.62079 4.93172 4.04162
134 2 6.40509 6.28571 3.21131
135 2 3.91193 4.62173 5.46271
136 2 5.43031 4.67598 6.27231
137 2 2.0237 1.07445 4.68488
138 2 3.5011 0.994674 5.37295
139 2 1.98265 5.1127 6.4167
140 2 2.45679 6.35498 5.48599
141 2 5.39225 1.4306 1.8485
142 2 5.02185 2.74092 1.15098
143 2 5.14394 2.53229 5.36266
144 2 5.75639 1.22843 6.27877
145 2 1.88599 4.7022 8.45543
146 2 1.23191 3.53724 7.47552
147 2 1.69625 4.78279 4.09532
148 2 1.96641 4.53266 2.50885
149 2 3.50281 5.13645 1.03322
150 2 2.57429 6.28695 1.22836
151 2 3.30635 1.34497 1.13524
152 2 2.02084 1.16571 1.99469
153 2 5.67474 1.29388 4.10517
154 2 6.24048 14.0044 3.17297
155 2 5.8539 0.958863 8.56678
156 2 6.4323 14.0006 7.80027
157 2 7.38849 5.1254 7.51534
158 2 6.21487 6.34014 7.67142
159 2 1.7268 1.30748 6.65531
160 2 0.479835 1.54187 7.45819
161 2 8.98852 2.75012 3.39549
162 2 7.85046 1.47376 3.14131
163 2 12.6753 3.33847 1.03428
164 2 13.0957 4.74206 17.6766
165 2 13.5121 5.1056 2.37915
166 2 14.7889 4.88791 3.15302
167 2 13.0777 4.50614 4.57436
168 2 11.8663 4.48443 5.41535
169 2 10.9484 1.11489 5.34898
170 2 9.63631 1.26005 4.45743
171 2 10.1144 6.21204 5.26762
172 2 9.69429 5.02054 4.6991
173 2 11.8106 1.59563 1.27263
174 2 13.0808 1.28928 1.89743
175 2 12.9103 2.57038 5.42364
176 2 13.0689 1.4984 6.30674
177 2 9.16988 4.4274 6.58507
178 2 8.63072 3.35389 7.57522
179 2 7.97335 4.54642 3.01005
180 2 9.47916 5.11943 2.43705
181 2 9.75169 4.97994 17.5417
182 2 11.1076 4.90684 0.787974
183 2 9.74861 1.34926 17.6543
184 2 9.66598 1.26015 2.03019
185 2 13.5101 0.923608 3.93054
186 2 13.773 13.943 3.0908
187 2 13.2668 1.42016 8.46973
188 2 13.7901 14.147 7.61347
189 2 13.7575 4.92342 6.70613
190 2 14.9599 4.82406 7.79831
191 2 7.94072 1.33038 7.52302
192 2 9.57137 1.64845 6.70788
193 2 1.72228 8.58471 4.11498
194 2 1.30279 9.80627 3.29303
195 2 4.12361 11.7681 1.18466
196 2 4.98569 10.3911 1.07301
197 2 7.27247 12.0821 3.1939
198 2 5.74546 12.1057 2.51526
199 2 5.38036 11.934 4.59224
200 2 5.42835 11.839 6.32461
201 2 2.11478 8.49426 6.27125
202 2 3.49747 8.31012 5.47822
203 2 2.41065 13.2713 5.33449
204 2 3.33182 12.0131 5.30753
205 2 4.14916 8.43864 1.32484
206 2 5.4875 8.60881 0.324792
207 2 5.13777 9.87567 5.37155
208 2 5.77414 8.50632 4.56869
209 2 1.61219 11.7682 6.72024
210 2 1.37381 10.4297 7.62646
211 2 0.316956 11.9308 3.24153
212 2 1.80377 11.9062 4.0332
213 2 1.92271 12.0505 1.64529
214 2 2.58026 13.3631 1.18313
215 2 1.74781 8.41289 1.7381
216 2 2.11623 8.03947 17.7321
217 2 7.15978 8.21984 3.24055
218 2 5.7605 8.43589 2.43557
219 2 5.85076 8.40024 6.79356
220 2 7.11661 8.31326 7.54988
221 2 5.71263 12.0168 8.39233
222 2 7.12555 12.0402 7.63829
223 2 15.3985 8.52979 7.5582
224 2 1.81919 8.54678 8.34543
225 2 9.39793 8.6242 3.93214
226 2 9.4129 8.58257 2.5237
227 2 11.8197 11.8803 0.897934
228 2 12.5761 10.5073 1.21961
229 2 13.4054 12.0053 2.50433
230 2 13.5594 11.9453 4.12668
231 2 13.2626 12.0318 6.13446
232 2 11.8057 12.0754 5.41364
233 2 10.9319 8.33793 5.48343
234 2 9.72395 8.24909 6.31545
235 2 9.86286 13.415 5.37134
236 2 9.57718 12.0363 4.60135
237 2 13.1851 8.48045 1.90122
238 2 13.1888 8.59906 17.5132
239 2 13.3492 8.46614 4.44583
240 2 12.6323 9.75712 5.13199
241 2 9.12499 12.1269 8.15561
242 2 9.26738 11.7541 6.57145
243 2 8.7296 10.3922 3.10325
244 2 9.20713 11.6847 2.38902
245 2 10.2242 13.4833 0.883868
246 2 9.81779 12.2319 17.6731
247 2 11.0727 8.32301 1.05922
248 2 10.1466 6.96132 1.04486
249 2 15.063 8.15998 3.36765
250 2 14.0479 6.9416 3.07528
251 2 13.5773 7.10607 7.20162
252 2 13.4195 8.50252 6.92974
253 2 14.9726 12.1774 7.4537
254 2 13.7495 12.2326 8.47706
255 2 8.73338 9.81685 7.52352
256 2 9.01616 8.69749 8.4973
257 2 1.70914 1.39268 11.0773
258 2 0.352599 1.35922 11.9998
259 2 5.56924 4.67951 10.656
260 2 5.39646 4.7821 8.91064
261 2 6.18751 6.37603 11.9866
262 2 5.91575 4.90709 12.7825
263 2 4.12852 4.50878 13.9934
264 2 5.19908 3.32786 14.0808
265 2 2.21344 1.25985 13.4175
266 2 1.99668 1.13676 14.9083
267 2 2.02947 5.21278 15.0438
268 2 2.74307 6.27773 14.1198
269 2 4.30417 1.35157 9.80371
270 2 5.16331 2.69507 9.7911
271 2 4.21079 1.22347 14.2178
272 2 5.41957 1.26337 14.9876
273 2 1.87912 4.83114 17.0907
274 2 1.30103 3.33122 16.3729
275 2 1.91369 4.82486 12.7111
276 2 1.44067 3.45855 11.8994
277 2 2.18855 4.86146 10.5563
278 2 3.48572 4.73921 9.57157
279 2 1.98694 1.03701 8.85076
280 2 2.41059 14.2081 9.94958
281 2 5.76929 1.38096 11.2626
282 2 5.86758 1.20155 12.8125
283 2 6.45037 13.9888 16.3198
284 2 5.90809 1.25038 16.9979
285 2 7.19838 4.81408 16.2868
286 2 6.00884 5.06871 15.1988
287 2 0.336447 1.19572 16.56
288 2 1.88949 1.48242 17.0115
289 2 7.9901 1.38461 11.9021
290 2 8.96377 2.58055 11.7644
291 2 13.2226 4.67316 8.98649
292 2 13.2868 4.81375 10.657
293 2 14.8623 5.25346 11.9749
294 2 13.6805 4.85867 12.8676
295 2 12.9636 4.67929 15.0346
296 2 12.6716 3.46115 14.1587
297 2 10.3574 14.0706 14.0065
298 2 9.50965 1.32797 13.4048
299 2 11.0009 4.99367 14.0327
300 2 9.84695 4.94738 13.1103
301 2 12.4499 2.71796 9.87246
302 2 11.5531 1.48984 9.76032
303 2 13.1261 1.34381 14.8451
304 2 11.8079 1.37137 14.0892
305 2 8.8852 3.4557 16.2442
306 2 9.11849 4.84012 15.5603
307 2 9.29179 4.69175 10.9515
308 2 7.80236 4.86504 11.8333
309 2 9.89358 5.02294 8.69277
310 2 11.2033 4.80077 9.98973
311 2 9.88542 1.37443 10.4755
312 2 9.6468 1.18655 8.92702
313 2 13.3808 1.36216 11.1685
314 2 13.3198 1.10443 12.7903
315 2 13.6249 1.13372 17.2729
316 2 14.2267 14.0917 16.4207
317 2 14.0688 6.24905 16.1513
318 2 14.8755 5.05601 16.1676
319 2 8.01515 1.63552 16.4208
320 2 9.44292 1.19974 15.6112
321 2 1.82551 8.41555 11.2312
322 2 1.26965 9.77215 11.941
323 2 5.57708 11.8902 10.6382
324 2 4.21174 12.0731 9.79535
325 2 5.8698 12.1699 12.8857
326 2 6.38622 13.3829 11.8805
327 2 4.27687 11.7661 14.1799
328 2 5.02473 10.5686 14.4666
329 2 3.39656 8.28359 14.0302
330 2 2.25877 8.35486 13.3553
331 2 2.50587 13.4771 14.1404
332 2 2.0425 12.18 14.8706
333 2 5.01671 9.82844 9.80235
334 2 5.47957 8.52673 8.924
335 2 5.48312 8.29577 13.2674
336 2 5.81377 8.64558 15.0557
337 2 0.499753 11.7474 16.0776
338 2 1.86501 12.1934 16.8217
339 2 0.402836 11.7322 11.9409
340 2 1.73634 11.755 13.0347
341 2 2.04708 12.0398 8.93348
342 2 2.14007 12.2237 10.6598
343 2 2.73474 7.04823 9.64884
344 2 3.52053 8.35244 9.78584
345 2 6.99813 8.45613 11.8842
346 2 5.61496 8.23061 11.1267
347 2 6.34511 6.89891 16.2912
348 2 7.26447 8.40823 16.5302
349 2 5.8585 12.0027 17.204
350 2 5.9623 11.8797 15.4046
351 2 1.77086 8.47085 15.5813
352 2 1.46178 9.78902 16.4504
353 2 9.07792 8.43881 12.8067
354 2 9.6511 8.41419 11.3573
355 2 12.6554 10.54 9.81764
356 2 11.6637 11.5959 9.9547
357 2 14.0376 13.4651 11.9772
358 2 13.4955 12.1944 11.1474
359 2 11.8629 11.8774 14.3447
360 2 13.2073 11.7449 13.3396
361 2 10.9369 8.36535 14.3321
362 2 9.9959 6.98045 14.34
363 2 9.57388 12.2105 15.0273
364 2 9.77541 12.2231 13.401
365 2 13.1732 8.49906 9.00081
366 2 13.189 8.48246 10.5871
367 2 12.9383 8.66324 13.2949
368 2 12.5978 9.93395 14.2561
369 2 8.80434 10.6947 16.2919
370 2 7.83952 11.9264 16.3156
371 2 8.02876 11.872 12.1775
372 2 8.85713 10.4471 11.9727
373 2 10.0557 13.4209 9.78603
374 2 9.72271 12.1612 10.5823
375 2 10.1601 7.03925 9.75735
376 2 11.1149 8.1842 9.73496
377 2 14.7052 8.29797 11.9217
378 2 13.9153 6.92151 11.9641
379 2 14.8683 8.21652 16.321
380 2 13.6416 8.34806 15.435
381 2 13.4839 12.0622 17.0781
382 2 13.495 12.1817 15.5932
383 2 9.18928 8.6626 15.6031
384 2 9.47392 8.43201 17.1073
ITEM: TIMESTEP
400
ITEM: NUMBER OF ATOMS
384
ITEM: BOX BOUNDS pp pp pp
4.6654049692420863e-01 1.5179137033075790e+01
4.3348055518130035e-01 1.4273664734818711e+01
6.2313843955395143e-01 1.7449898590446061e+01
ITEM: ATOMS id type x y z
1 1 1.35698 1.66201 3.28924
2 1 4.98969 4.52174 1.04319
3 1 6.19733 5.12396 3.27248
4 1 4.7857 4.15405 5.13976
5 1 2.56586 0.572545 5.29889
6 1 2.47275 5.18498 5.27301
7 1 4.87357 1.77365 1.1726
8 1 4.97069 1.59196 5.29964
9 1 1.22196 4.35775 7.4149
10 1 1.23629 4.35766 3.06856
11 1 2.53158 5.02305 1.07898
12 1 2.47289 0.914588 1.11283
13 1 6.15388 0.850911 3.22196
14 1 6.27217 0.821312 7.31414
15 1 6.18601 5.1609 7.19112
16 1 1.44141 1.72854 7.30643
17 1 8.54216 1.78684 3.16162
18 1 12.2879 4.13703 0.846572
19 1 13.4313 5.01594 2.98691
20 1 12.2366 4.09422 5.12405
21 1 9.87465 0.691285 5.09759
22 1 9.85551 5.06537 5.2089
23 1 12.3561 1.56032 1.00938
24 1 12.375 1.53765 5.27025
25 1 8.56053 4.12552 7.34755
26 1 8.60907 4.38143 3.04491
27 1 9.85321 5.20862 0.815977
28 1 9.76302 0.831602 1.14795
29 1 13.6741 0.942891 3.10486
30 1 13.6372 0.818705 7.43443
31 1 13.5185 5.18033 7.2036
32 1 8.72434 1.46476 7.32452
33 1 1.29935 8.54581 3.14728
34 1 4.93136 11.1402 1.03745
35 1 6.25732 12.026 3.03446
36 1 4.93296 11.3107 5.12851
37 1 2.46765 7.76724 5.31362
38 1 2.39562 11.8626 5.22594
39 1 4.77501 8.59176 1.00453
40 1 4.9076 8.61155 5.14488
41 1 1.23103 11.0926 7.37653
42 1 1.22017 11.2222 3.08891
43 1 2.56584 12.1761 1.06103
44 1 2.39608 7.57621 1.02766
45 1 6.27913 7.74623 3.05749
46 1 6.11238 7.78274 7.27264
47 1 6.04551 11.9995 7.34754
48 1 1.20047 8.46547 7.35689
49 1 8.65958 8.5855 3.09756
50 1 12.309 11.2331 1.05625
51 1 13.4548 12.2162 3.14412
52 1 12.3162 11.3381 5.29664
53 1 9.94212 7.66185 5.29615
54 1 9.78557 12.0147 5.28375
55 1 12.3801 8.62003 1.08973
56 1 12.209 8.77526 5.11841
57 1 8.45571 11.2135 7.30641
58 1 8.74183 11.2248 3.13403
59 1 9.94906 12.1254 1.0788
60 1 9.85554 7.71956 0.972167
61 1 13.5163 7.67487 3.12563
62 1 13.4037 7.84051 7.27897
63 1 13.4963 12.1269 7.49545
64 1 8.47563 8.6407 7.30553
65 1 1.42394 1.58481 11.5453
66 1 4.96144 4.2773 9.397
67 1 6.21024 5.1981 11.5304
68 1 5.02569 4.39469 13.566
69 1 2.5376 0.758589 13.7065
70 1 2.46919 5.1794 13.7122
71 1 5.01309 1.65186 9.62949
72 1 4.94758 1.85347 13.7895
73 1 1.16598 4.29929 15.7061
74 1 1.33012 4.26198 11.6787
75 1 2.49104 5.19157 9.56474
76 1 2.54905 0.816958 9.464
77 1 6.2095 0.787641 11.7792
78 1 6.07554 0.761193 15.9271
79 1 6.26373 5.17622 15.772
80 1 1.25701 1.65669 15.7336
81 1 8.53128 1.76887 11.5408
82 1 12.3377 4.32354 9.38568
83 1 13.546 5.08443 11.6451
84 1 12.2136 4.13376 13.5633
85 1 9.74214 0.788053 13.6292
86 1 9.72154 5.03131 13.4576
87 1 12.25 1.73527 9.54578
88 1 12.2508 1.56105 13.7545
89 1 8.70184 4.07275 15.676
90 1 8.56062 4.28321 11.3802
91 1 9.8918 5.18756 9.2425
92 1 9.91482 0.696654 9.52558
93 1 13.6242 0.862689 11.5829
94 1 13.5436 0.646715 15.9126
95 1 13.4242 5.16495 15.5854
96 1 8.64463 1.64521 15.7094
97 1 1.19256 8.70197 11.6146
98 1 4.87299 11.2008 9.53789
99 1 6.15759 11.983 11.639
100 1 4.83745 11.2739 13.7215
101 1 2.391 7.82105 13.6194
102 1 2.44314 11.9494 13.5991
103 1 4.75123 8.63739 9.42531
104 1 4.7784 8.63692 13.7225
105 1 1.33972 11.0239 15.8406
106 1 1.22486 11.3103 11.5068
107 1 2.44269 12.125 9.4047
108 1 2.38729 7.65093 9.43128
109 1 6.10026 7.91992 11.5521
110 1 6.13476 7.73508 15.7641
111 1 6.24848 12.0372 15.796
112 1 1.2481 8.60085 15.7425
113 1 8.71983 8.62027 11.5001
114 1 12.1472 11.1896 9.44351
115 1 13.5215 12.213 11.501
116 1 12.1373 11.2481 13.5437
117 1 9.77954 7.67988 13.6994
118 1 9.76129 12.021 13.4757
119 1 12.2562 8.58123 9.50586
120 1 12.208 8.62216 13.588
121 1 8.68993 11.2635 15.8384
122 1 8.52957 11.0585 11.5257
123 1 9.72748 11.9934 9.43895
124 1 9.82658 7.71994 9.41191
125 1 13.5136 7.67114 11.5405
126 1 13.477 7.76373 15.7119
127 1 13.5939 11.8806 15.7897
128 1 8.5562 8.57645 15.7282
129 2 15.1435 1.40244 3.45781
130 2 1.40409 2.71588 3.22427
131 2 5.41874 4.48592 1.85174
132 2 5.46029 4.79108 17.0294
133 2 5.8219 4.72273 4.03272
134 2 6.11485 6.0812 3.20568
135 2 3.72825 4.57873 5.2532
136 2 5.22264 4.61624 5.95944
137 2 2.21582 1.17003 4.38213
138 2 3.43198 0.694534 5.13965
139 2 1.90338 4.90193 6.08654
140 2 2.38003 6.1287 5.14188
141 2 5.48136 1.41917 1.85464
142 2 4.95561 2.75727 1.03813
143 2 4.81488 2.66557 5.47841
144 2 5.50768 1.43345 6.1985
145 2 1.80687 4.62977 8.25797
146 2 1.22853 3.46548 7.43939
147 2 1.78079 4.70764 3.80129
148 2 1.6874 4.74979 2.16175
149 2 3.38634 4.92309 1.20361
150 2 2.51427 6.03297 0.80885
151 2 3.44281 1.34601 1.08927
152 2 2.02702 1.19382 1.9011
153 2 5.68293 1.0834 4.13982
154 2 6.1355 13.6963 3.27124
155 2 5.64356 1.23461 8.21695
156 2 6.02658 13.7297 7.33432
157 2 7.04418 4.96388 7.417
158 2 6.0769 6.2238 7.34639
159 2 1.81846 1.32715 6.54246
160 2 0.480343 1.56064 7.37398
161 2 8.39036 2.56876 3.28114
162 2 7.58399 1.36727 3.12838
163 2 12.1093 3.05173 0.675047
164 2 12.6248 4.67926 16.8181
165 2 12.8862 4.78569 2.16204
166 2 14.3471 4.80284 2.83625
167 2 12.6933 4.34856 4.23935
168 2 11.3026 4.41323 5.21558
169 2 10.8734 0.849749 5.40388
170 2 9.64843 1.16651 4.49435
171 2 9.96475 6.0868 5.25905
172 2 9.11195 4.73765 4.24022
173 2 11.2539 1.36406 0.999442
174 2 12.7964 1.56751 1.87996
175 2 12.4428 2.46008 5.33606
176 2 13.1007 1.24353 6.01929
177 2 9.11089 4.42358 6.4366
178 2 8.71811 3.05522 7.29679
179 2 7.58552 4.69841 3.13858
180 2 8.92865 4.59977 2.16377
181 2 9.74892 4.77588 16.6955
182 2 10.6154 4.79264 0.947326
183 2 9.20583 1.20033 17.3306
184 2 9.33762 1.21141 2.0306
185 2 12.9576 1.07643 4.00175
186 2 13.5651 13.7556 3.2414
187 2 13.0667 1.17455 8.20762
188 2 13.4285 13.5098 7.7156
189 2 13.1806 4.65843 6.4888
190 2 14.4259 4.92482 7.42851
191 2 7.67445 1.47448 7.311
192 2 9.1593 1.32033 6.43483
193 2 1.70117 8.49025 3.98149
194 2 1.4578 9.51702 2.99298
195 2 3.93547 11.552 1.01587
196 2 4.90418 10.0122 1.0132
197 2 7.2393 11.592 2.99042
198 2 5.81068 11.5136 2.16857
199 2 5.46062 11.5029 4.36605
200 2 5.41033 11.642 6.05195
201 2 1.74701 8.04916 6.04675
202 2 3.38639 8.13591 5.32528
203 2 2.38922 12.8136 5.39397
204 2 3.32967 11.5781 5.10569
205 2 3.85572 8.20978 1.16952
206 2 5.25011 8.35043 17.002
207 2 4.82488 9.66913 5.08325
208 2 5.42867 8.46646 4.26655
209 2 1.76052 11.2015 6.4913
210 2 1.04148 10.2083 7.37504
211 2 15.0094 11.5262 3.31853
212 2 1.74168 11.3712 3.9454
213 2 2.06575 12.0106 1.96139
214 2 2.58702 13.2297 0.827491
215 2 1.83123 7.96692 1.64211
216 2 1.98686 8.03028 16.9659
217 2 7.21998 7.94263 3.10592
218 2 5.63891 7.99677 2.19102
219 2 5.66696 7.95402 6.23093
220 2 7.23215 8.11668 7.25052
221 2 5.68163 11.7308 8.20377
222 2 6.95237 11.751 7.25341
223 2 14.8213 8.24223 7.48068
224 2 1.60886 8.09878 8.33864
225 2 8.91072 8.22794 3.87859
226 2 9.26039 8.25645 2.31374
227 2 11.338 11.7286 0.839671
228 2 12.2691 10.2555 1.0945
229 2 12.9851 11.8263 2.38788
230 2 13.16 11.9065 3.87231
231 2 12.7598 11.8521 6.06441
232 2 11.1859 11.6792 5.33957
233 2 10.6962 8.20406 5.35216
234 2 9.35537 8.06699 6.04909
235 2 9.80136 12.9682 5.1778
236 2 9.50027 11.604 4.4293
237 2 13.0617 8.4284 2.06588
238 2 12.9311 8.42061 17.1247
239 2 12.6111 8.51046 4.32087
240 2 12.292 9.80524 5.30295
241 2 9.0109 11.812 8.02097
242 2 8.99555 11.4445 6.50948
243 2 8.65529 10.3725 3.05076
244 2 9.15023 11.5854 2.24688
245 2 9.93503 13.0938 1.11735
246 2 9.58194 11.7106 17.0569
247 2 10.7192 8.14982 1.07384
248 2 9.90543 6.48643 0.777235
249 2 14.5139 8.00117 3.06598
250 2 13.4554 6.6946 3.07438
251 2 13.1096 6.83168 7.22713
252 2 12.9032 8.08839 6.40071
253 2 14.353 11.6413 7.3408
254 2 12.9859 11.6992 8.23679
255 2 8.54253 9.63176 7.53374
256 2 8.91872 8.22274 8.10345
257 2 1.88888 1.26629 10.5934
258 2 15.097 1.37867 11.5798
259 2 5.51839 4.47324 10.1721
260 2 5.42718 4.71552 8.57839
261 2 5.97962 6.17007 11.5451
262 2 5.65381 4.88854 12.3247
263 2 3.92166 4.78548 13.6515
264 2 4.66692 3.39323 13.6289
265 2 2.09389 1.09965 12.8377
266 2 2.12477 1.24365 14.4531
267 2 2.13357 4.84449 14.4752
268 2 2.5511 6.19526 13.7427
269 2 4.11769 1.43172 9.476
270 2 4.97358 2.59493 9.49688
271 2 4.07576 1.37375 13.8718
272 2 5.46215 1.53671 14.5864
273 2 1.78033 4.51779 16.4857
274 2 1.09275 3.21666 15.5572
275 2 1.85463 4.53434 12.6222
276 2 1.32677 3.20492 11.6062
277 2 2.23179 4.82037 10.4415
278 2 3.51605 4.99333 9.62892
279 2 2.39496 1.07935 8.51709
280 2 2.47312 13.6962 9.16214
281 2 5.61555 0.931041 11.006
282 2 5.68784 1.2841 12.4928
283 2 6.01941 13.5183 15.8593
284 2 5.43256 1.34035 16.6607
285 2 7.27505 4.89761 15.788
286 2 5.98633 4.81711 14.9721
287 2 15.1103 1.16456 15.8148
288 2 1.58404 1.33028 16.7415
289 2 7.72442 1.40424 11.3321
290 2 8.70515 2.61638 11.4316
291 2 12.9204 4.63403 8.55566
292 2 12.8466 4.68082 10.2702
293 2 14.4506 4.84934 11.6725
294 2 13.0168 4.75777 12.2326
295 2 12.7889 4.64129 14.3292
296 2 12.336 3.18421 13.6983
297 2 9.50191 13.5444 13.7799
298 2 9.21775 1.29152 12.7948
299 2 10.549 4.71917 13.4959
300 2 9.19171 4.78569 12.6047
301 2 12.2607 2.67053 9.62686
302 2 11.3345 1.24822 9.39372
303 2 12.5997 1.22282 14.5759
304 2 11.3286 1.25377 13.8006
305 2 8.80275 3.07977 15.6743
306 2 8.83335 4.60692 14.716
307 2 9.03924 4.54923 10.4876
308 2 7.60006 4.66436 11.2393
309 2 9.54809 4.62834 8.48073
310 2 10.8951 4.84468 9.27434
311 2 9.43146 1.18725 10.4914
312 2 9.44233 0.987745 8.66158
313 2 13.2191 0.975029 10.8119
314 2 13.0953 1.17061 12.228
315 2 13.1872 1.04668 16.7679
316 2 13.434 13.4316 15.9349
317 2 13.3718 6.19478 15.2801
318 2 14.4311 4.97242 15.6156
319 2 7.70799 1.32896 15.7058
320 2 9.28545 1.28905 14.7945
321 2 1.62628 8.21474 10.6648
322 2 1.07075 9.88496 11.5628
323 2 5.35918 11.5514 10.514
324 2 3.93027 11.6064 9.34281
325 2 5.55213 11.5958 12.4286
326 2 6.06088 12.9911 11.5645
327 2 3.88778 11.5362 13.8501
328 2 4.82149 10.235 13.66