ITEM: TIMESTEP
0
ITEM: NUMBER OF ATOMS
384
ITEM: BOX BOUNDS pp pp pp
0.0000000000000000e+00 1.5645677530000000e+01
0.0000000000000000e+00 1.4707145290000000e+01
0.0000000000000000e+00 1.8073037029999998e+01
ITEM: ATOMS id type x y z
1 1 1.38 1.76 3.37
2 1 5.2 4.47 1.11
3 1 6.59 5.39 3.31
4 1 5.28 4.49 5.56
5 1 2.59 0.84 5.67
6 1 2.69 5.43 5.56
7 1 5.2 1.71 1.07
8 1 5.2 1.73 5.58
9 1 1.32 4.61 7.82
10 1 1.3 4.52 3.36
11 1 2.61 5.41 1.1
12 1 2.59 0.82 1.07
13 1 6.54 0.87 3.33
14 1 6.54 0.88 7.83
15 1 6.51 5.4 7.86
16 1 1.35 1.85 7.92
17 1 9.2 1.76 3.37
18 1 13.05 4.55 1.15
19 1 14.35 5.46 3.4
20 1 13.1 4.49 5.66
21 1 10.41 0.84 5.67
22 1 10.51 5.43 5.65
23 1 13.07 1.79 1.07
24 1 13.02 1.73 5.58
25 1 9.15 4.61 7.91
26 1 9.2 4.52 3.4
27 1 10.45 5.49 1.15
28 1 10.49 0.82 1.12
29 1 14.36 0.87 3.33
30 1 14.36 0.88 7.83
31 1 14.36 5.48 7.9
32 1 9.17 1.85 7.92
33 1 1.3 9.11 3.32
34 1 5.3 11.9 1.11
35 1 6.53 12.81 3.4
36 1 5.2 11.84 5.61
37 1 2.59 8.19 5.58
38 1 2.61 12.79 5.61
39 1 5.25 9.14 1.16
40 1 5.2 9.08 5.67
41 1 1.32 11.96 7.91
42 1 1.38 11.87 3.31
43 1 2.69 12.77 1.06
44 1 2.67 8.17 1.12
45 1 6.49 8.14 3.42
46 1 6.49 8.16 7.92
47 1 6.53 12.83 7.81
48 1 1.35 9.21 7.83
49 1 9.09 9.19 3.37
50 1 13.13 11.9 1.11
51 1 14.44 12.82 3.35
52 1 13.1 11.84 5.56
53 1 10.41 8.19 5.58
54 1 10.51 12.79 5.65
55 1 12.99 9.14 1.12
56 1 13.02 9.08 5.67
57 1 9.12 11.89 7.86
58 1 9.15 11.95 3.4
59 1 10.51 12.77 1.15
60 1 10.38 8.25 1.12
61 1 14.29 8.22 3.37
62 1 14.36 8.24 7.92
63 1 14.36 12.83 7.81
64 1 9.12 9.13 7.83
65 1 1.35 1.83 12.45
66 1 5.2 4.47 10.14
67 1 6.59 5.39 12.34
68 1 5.3 4.56 14.65
69 1 2.67 0.84 14.66
70 1 2.69 5.43 14.6
71 1 5.28 1.71 10.15
72 1 5.25 1.81 14.61
73 1 1.32 4.61 16.85
74 1 1.32 4.59 12.35
75 1 2.63 5.49 10.09
76 1 2.64 0.89 10.2
77 1 6.57 0.79 12.41
78 1 6.54 0.88 16.87
79 1 6.53 5.48 16.94
80 1 1.35 1.85 16.86
81 1 9.2 1.76 12.41
82 1 13.02 4.47 10.14
83 1 14.35 5.46 12.34
84 1 13.05 4.57 14.6
85 1 10.46 0.91 14.71
86 1 10.46 5.51 14.69
87 1 13.1 1.71 10.15
88 1 13.07 1.81 14.61
89 1 9.15 4.61 16.94
90 1 9.2 4.52 12.44
91 1 10.45 5.49 10.18
92 1 10.49 0.82 10.16
93 1 14.39 0.79 12.41
94 1 14.36 0.88 16.87
95 1 14.33 5.4 16.89
96 1 9.17 1.85 16.96
97 1 1.3 9.11 12.45
98 1 5.28 11.83 10.1
99 1 6.59 12.74 12.34
100 1 5.3 11.92 14.65
101 1 2.59 8.19 14.71
102 1 2.69 12.79 14.6
103 1 5.2 9.07 10.2
104 1 5.17 9.16 14.66
105 1 1.38 11.89 16.85
106 1 1.38 11.87 12.35
107 1 2.71 12.84 10.14
108 1 2.56 8.25 10.16
109 1 6.49 8.14 12.46
110 1 6.46 8.24 16.91
111 1 6.61 12.83 16.89
112 1 1.3 9.13 16.96
113 1 9.09 9.19 12.41
114 1 13.13 11.9 10.14
115 1 14.41 12.74 12.44
116 1 13.1 11.84 14.69
117 1 10.38 8.27 14.66
118 1 10.53 12.86 14.64
119 1 12.99 9.14 10.15
120 1 13.02 9.08 14.7
121 1 9.23 11.96 16.9
122 1 9.23 11.95 12.39
123 1 10.51 12.77 10.09
124 1 10.38 8.25 10.16
125 1 14.29 8.22 12.41
126 1 14.31 8.16 16.96
127 1 14.44 12.83 16.89
128 1 9.09 9.21 16.91
129 2 0.46 1.48 3.37
130 2 1.33 2.71 3.37
131 2 5.68 4.81 1.86
132 2 5.67 4.81 0.35
133 2 6.13 5.1 4.1
134 2 6.56 6.34 3.34
135 2 4.38 4.84 5.6
136 2 5.7 4.83 6.36
137 2 2.17 1.18 4.88
138 2 3.49 1.17 5.63
139 2 2.23 5.15 6.35
140 2 2.65 6.39 5.59
141 2 5.65 1.43 1.86
142 2 5.23 2.67 1.1
143 2 5.23 2.69 5.61
144 2 5.65 1.45 6.37
145 2 1.78 4.88 8.61
146 2 1.33 3.65 7.85
147 2 1.78 4.85 4.11
148 2 1.78 4.85 2.6
149 2 3.52 5.14 1.1
150 2 2.64 6.37 1.11
151 2 3.49 1.15 1.11
152 2 2.17 1.16 1.87
153 2 6.09 1.14 4.12
154 2 6.53 14.6171 3.37
155 2 6.09 1.15 8.63
156 2 6.53 14.6371 7.86
157 2 7.43 5.14 7.86
158 2 6.53 6.36 7.86
159 2 1.77 1.51 7.13
160 2 0.46 1.51 7.89
161 2 9.16 2.71 3.37
162 2 8.28 1.48 3.37
163 2 13.06 3.59 1.12
164 2 13.5 4.82 0.36
165 2 13.94 5.12 2.61
166 2 15.25 5.14 3.36
167 2 13.52 4.82 4.86
168 2 12.21 4.84 5.62
169 2 11.31 1.17 5.63
170 2 10 1.18 4.88
171 2 10.47 6.39 5.62
172 2 10.05 5.15 4.86
173 2 12.18 1.46 1.11
174 2 13.49 1.45 1.86
175 2 13.05 2.69 5.61
176 2 13.48 1.45 6.37
177 2 9.61 4.88 7.11
178 2 9.16 3.65 7.88
179 2 8.3 4.84 3.36
180 2 9.61 4.85 2.61
181 2 10.04 5.17 0.35
182 2 11.35 5.14 1.11
183 2 10.02 1.16 0.36
184 2 10.02 1.16 1.88
185 2 13.91 1.14 4.12
186 2 14.35 14.6171 3.37
187 2 13.91 1.15 8.63
188 2 14.36 14.6371 7.86
189 2 13.94 5.14 7.11
190 2 15.26 5.16 7.86
191 2 8.28 1.51 7.89
192 2 9.59 1.51 7.13
193 2 1.75 8.83 4.12
194 2 1.33 10.07 3.36
195 2 4.39 12.19 1.1
196 2 5.25 10.94 1.11
197 2 7.43 12.49 3.36
198 2 6.12 12.48 2.61
199 2 5.68 12.17 4.85
200 2 5.68 12.18 6.37
201 2 2.17 8.54 6.37
202 2 3.49 8.52 5.61
203 2 2.64 13.74 5.61
204 2 3.52 12.51 5.61
205 2 4.35 8.81 1.13
206 2 5.66 8.81 0.36
207 2 5.23 10.04 5.63
208 2 5.65 8.8 4.88
209 2 1.78 12.24 7.11
210 2 1.34 11.01 7.88
211 2 0.48 12.2 3.35
212 2 1.79 12.21 4.11
213 2 2.23 12.49 1.85
214 2 2.65 13.72 1.09
215 2 2.19 8.52 1.88
216 2 2.2 8.52 0.36
217 2 7.38 8.49 3.39
218 2 6.07 8.48 2.63
219 2 6.07 8.5 7.13
220 2 7.38 8.51 7.89
221 2 6.12 12.49 8.61
222 2 7.43 12.51 7.85
223 2 0.46 8.86 7.86
224 2 1.77 8.86 8.62
225 2 9.57 8.85 4.13
226 2 9.57 8.84 2.61
227 2 12.21 12.19 1.1
228 2 13.08 10.94 1.11
229 2 13.95 12.48 2.6
230 2 13.95 12.48 4.11
231 2 13.52 12.18 6.36
232 2 12.21 12.19 5.6
233 2 11.31 8.52 5.61
234 2 10 8.54 6.37
235 2 10.47 13.74 5.62
236 2 10.05 12.51 4.86
237 2 13.47 8.8 1.87
238 2 13.47 8.81 0.36
239 2 13.48 8.8 4.88
240 2 13.05 10.04 5.63
241 2 9.6 12.22 8.62
242 2 9.6 12.22 7.11
243 2 9.16 10.99 3.37
244 2 9.61 12.22 2.61
245 2 10.48 13.72 1.13
246 2 10.05 12.49 0.35
247 2 11.3 8.53 1.12
248 2 10.43 7.29 1.11
249 2 15.2 8.51 3.37
250 2 14.34 7.26 3.37
251 2 14.36 7.28 7.88
252 2 13.91 8.52 7.13
253 2 15.26 12.51 7.85
254 2 13.94 12.49 8.61
255 2 9.15 10.09 7.86
256 2 9.57 8.85 8.62
257 2 1.77 1.49 11.66
258 2 0.46 1.49 12.42
259 2 5.68 4.81 10.9
260 2 5.67 4.81 9.38
261 2 6.56 6.34 12.38
262 2 6.13 5.1 13.14
263 2 4.39 4.85 14.65
264 2 5.25 3.61 14.65
265 2 2.19 1.18 13.9
266 2 2.19 1.18 15.42
267 2 2.23 5.15 15.39
268 2 2.65 6.39 14.63
269 2 4.36 1.44 10.15
270 2 5.24 2.67 10.15
271 2 4.35 1.48 14.65
272 2 5.66 1.47 15.41
273 2 1.78 4.88 17.65
274 2 1.33 3.65 16.89
275 2 1.78 4.87 13.14
276 2 1.34 3.64 12.39
277 2 2.21 5.16 10.89
278 2 3.52 5.14 10.13
279 2 2.19 1.18 9.41
280 2 2.63 14.6471 10.16
281 2 6.09 1.13 11.65
282 2 6.09 1.14 13.17
283 2 6.53 14.6371 16.9
284 2 6.09 1.15 17.67
285 2 7.43 5.16 16.9
286 2 6.12 5.14 16.15
287 2 0.46 1.51 16.89
288 2 1.77 1.51 17.66
289 2 8.28 1.48 12.41
290 2 9.16 2.71 12.4
291 2 13.5 4.81 9.38
292 2 13.5 4.81 10.9
293 2 15.25 5.14 12.39
294 2 13.94 5.13 13.14
295 2 13.51 4.84 15.39
296 2 13.06 3.61 14.64
297 2 10.46 14.6671 14.67
298 2 10.01 1.19 13.91
299 2 11.35 5.16 14.65
300 2 10.04 5.17 13.9
301 2 13.07 2.67 10.15
302 2 12.18 1.44 10.15
303 2 13.49 1.47 15.41
304 2 12.18 1.48 14.65
305 2 9.16 3.65 16.91
306 2 9.61 4.88 16.15
307 2 9.61 4.85 11.64
308 2 8.3 4.84 12.4
309 2 10.04 5.17 9.39
310 2 11.35 5.14 10.15
311 2 10.02 1.16 10.91
312 2 10.02 1.16 9.4
313 2 13.92 1.13 11.65
314 2 13.92 1.14 13.17
315 2 13.91 1.15 17.67
316 2 14.36 14.6371 16.9
317 2 14.36 6.36 16.9
318 2 15.25 5.14 16.9
319 2 8.28 1.51 16.93
320 2 9.59 1.51 16.17
321 2 1.75 8.83 11.66
322 2 1.33 10.07 12.41
323 2 5.7 12.16 10.89
324 2 4.38 12.17 10.13
325 2 6.13 12.46 13.14
326 2 6.56 13.7 12.38
327 2 4.39 12.21 14.65
328 2 5.25 10.96 14.65
329 2 3.49 8.52 14.67
330 2 2.17 8.53 13.91
331 2 2.65 13.74 14.63
332 2 2.23 12.5 15.39
333 2 5.22 10.02 10.17
334 2 5.65 8.79 9.4
335 2 5.65 8.81 13.9
336 2 5.65 8.82 15.42
337 2 0.48 12.22 16.89
338 2 1.79 12.22 17.65
339 2 0.48 12.2 12.39
340 2 1.79 12.21 13.14
341 2 2.23 12.52 9.38
342 2 2.23 12.51 10.89
343 2 2.61 7.29 10.15
344 2 3.48 8.53 10.16
345 2 7.38 8.49 12.42
346 2 6.07 8.48 11.66
347 2 6.52 7.28 16.91
348 2 7.37 8.53 16.91
349 2 6.14 12.5 17.65
350 2 6.13 12.5 16.14
351 2 1.75 8.84 16.16
352 2 1.33 10.09 16.92
353 2 9.57 8.85 13.16
354 2 9.57 8.84 11.65
355 2 13.08 10.94 10.15
356 2 12.21 12.19 10.14
357 2 14.37 13.7 12.41
358 2 13.95 12.46 11.65
359 2 12.21 12.19 14.66
360 2 13.52 12.17 13.9
361 2 11.3 8.55 14.66
362 2 10.43 7.31 14.66
363 2 10.05 12.53 15.4
364 2 10.05 12.52 13.89
365 2 13.47 8.81 9.39
366 2 13.47 8.8 10.91
367 2 13.48 8.8 13.91
368 2 13.05 10.04 14.67
369 2 9.19 11.01 16.9
370 2 8.31 12.24 16.9
371 2 8.31 12.22 12.39
372 2 9.19 10.99 12.4
373 2 10.48 13.72 10.13
374 2 10.05 12.49 10.88
375 2 10.43 7.29 10.15
376 2 11.3 8.53 10.16
377 2 15.2 8.51 12.41
378 2 14.34 7.26 12.4
379 2 15.2 8.51 16.93
380 2 13.89 8.5 16.17
381 2 13.96 12.5 17.65
382 2 13.95 12.5 16.14
383 2 9.57 8.86 16.15
384 2 9.56 8.86 17.67
ITEM: TIMESTEP
200
ITEM: NUMBER OF ATOMS
384
ITEM: BOX BOUNDS pp pp pp
2.4136573719089505e-01 1.5404311792809107e+01
2.3499875751976607e-01 1.4472146532480238e+01
3.2049711169290340e-01 1.7752539918307097e+01
ITEM: ATOMS id type x y z
1 1 1.39834 1.73791 3.27293
2 1 4.99291 4.47025 1.01754
3 1 6.34195 5.26496 3.24431
4 1 5.0209 4.38915 5.46495
5 1 2.57958 0.653252 5.4756
6 1 2.4123 5.25615 5.48146
7 1 5.01789 1.72091 1.00863
8 1 5.07834 1.60325 5.45696
9 1 1.28461 4.40187 7.61905
10 1 1.24836 4.38996 3.28735
11 1 2.50059 5.24202 1.15611
12 1 2.52368 0.836334 1.06789
13 1 6.20362 0.908087 3.2274
14 1 6.3729 0.734719 7.61086
15 1 6.29147 5.28481 7.5297
16 1 1.36248 1.7124 7.601
17 1 8.81136 1.83322 3.26387
18 1 12.575 4.38197 1.03526
19 1 13.9238 5.27982 3.20694
20 1 12.7752 4.46541 5.41662
21 1 10.0632 0.883742 5.34961
22 1 10.1796 5.23716 5.47943
23 1 12.7345 1.66657 1.07804
24 1 12.6799 1.72476 5.37545
25 1 8.87658 4.21982 7.58714
26 1 8.92243 4.45417 3.20493
27 1 10.1459 5.27767 0.990699
28 1 10.1628 0.917081 1.08153
29 1 13.9794 0.733799 3.14783
30 1 13.9907 0.880579 7.61149
31 1 13.9588 5.26441 7.58792
32 1 8.90003 1.58865 7.54161
33 1 1.33543 8.76607 3.26272
34 1 5.06275 11.4599 1.14793
35 1 6.29871 12.384 3.26295
36 1 4.97507 11.5725 5.41189
37 1 2.47678 8.04244 5.45875
38 1 2.48123 12.3268 5.39002
39 1 5.07552 8.84636 1.10722
40 1 5.15096 8.92657 5.39458
41 1 1.28842 11.5091 7.54488
42 1 1.2526 11.4451 3.17685
43 1 2.60716 12.3776 1.0021
44 1 2.49643 7.905 1.07259
45 1 6.29872 7.95453 3.33873
46 1 6.23082 7.90523 7.52258
47 1 6.2903 12.3663 7.51208
48 1 1.28856 8.89327 7.62323
49 1 8.78755 8.81019 3.27159
50 1 12.7085 11.4078 1.06831
51 1 13.9225 12.4025 3.18795
52 1 12.6871 11.6756 5.39783
53 1 10.0179 7.91431 5.37026
54 1 10.1629 12.4244 5.41542
55 1 12.713 8.79237 1.09439
56 1 12.556 8.80238 5.28477
57 1 8.84715 11.5029 7.48054
58 1 8.86616 11.5054 3.23053
59 1 10.1539 12.4603 1.05996
60 1 10.1392 7.97788 1.17069
61 1 13.9832 7.93687 3.25674
62 1 13.8199 7.95484 7.54224
63 1 14.1093 12.4945 7.62809
64 1 8.79805 8.80896 7.52019
65 1 1.31565 1.73482 11.9511
66 1 5.0913 4.43009 9.70037
67 1 6.34114 5.32985 11.8674
68 1 5.10619 4.3817 14.0382
69 1 2.57039 0.819993 14.2949
70 1 2.6038 5.34298 14.1075
71 1 5.13079 1.73474 9.8365
72 1 5.11011 1.65557 14.2032
73 1 1.29556 4.398 16.3446
74 1 1.40337 4.41022 11.974
75 1 2.58402 5.17033 9.69392
76 1 2.60616 0.944495 9.82597
77 1 6.31549 0.834691 11.9982
78 1 6.45694 0.827382 16.3702
79 1 6.39192 5.33956 16.2795
80 1 1.25612 1.71072 16.3388
81 1 8.85587 1.70103 12.0125
82 1 12.7151 4.40913 9.8629
83 1 13.9363 5.26106 11.9153
84 1 12.7157 4.36081 14.0714
85 1 10.0881 0.923242 14.2038
86 1 10.1273 5.17658 14.0483
87 1 12.6731 1.73547 9.75551
88 1 12.6905 1.76352 14.1692
89 1 8.85914 4.40685 16.3566
90 1 8.84654 4.40878 11.8901
91 1 10.1948 5.28982 9.66287
92 1 10.1396 0.873912 9.7
93 1 13.9624 0.794813 11.8821
94 1 13.969 0.911866 16.2965
95 1 13.9028 5.27021 16.2594
96 1 8.89125 1.80634 16.3441
97 1 1.18235 8.79096 11.9563
98 1 5.10702 11.6193 9.75316
99 1 6.38899 12.3837 11.9065
100 1 5.15833 11.4563 14.1673
101 1 2.50688 7.95327 14.153
102 1 2.60282 12.442 14.0358
103 1 5.01667 8.84129 9.71918
104 1 5.03281 8.78142 14.1948
105 1 1.395 11.4322 16.2193
106 1 1.3055 11.5117 11.956
107 1 2.52241 12.4709 9.78351
108 1 2.52377 7.94559 9.78816
109 1 6.11345 7.99934 11.9973
110 1 6.26434 8.01969 16.3857
111 1 6.39573 12.3446 16.3753
112 1 1.25688 8.79588 16.3184
113 1 8.79193 8.7181 11.9887
114 1 12.6569 11.6055 9.78806
115 1 13.9118 12.3233 11.9572
116 1 12.7817 11.4521 14.1289
117 1 10.0513 7.89483 14.1948
118 1 10.2284 12.4378 14.2177
119 1 12.6594 8.83225 9.83638
120 1 12.6042 8.82232 14.2115
121 1 8.90774 11.5799 16.2736
122 1 8.89822 11.4341 11.9453
123 1 10.0588 12.5018 9.7034
124 1 10.1912 7.97817 9.86208
125 1 13.7729 7.96674 12.0023
126 1 13.9026 7.97535 16.3353
127 1 14.0814 12.3949 16.3617
128 1 8.8111 8.85055 16.3404
129 2 0.450588 1.30412 3.35592
130 2 1.06147 2.71821 3.19522
131 2 5.44974 4.76317 1.96172
132 2 5.58478 4.88564 0.4953
133 2 5.517 4.99476 3.99539
134 2 6.18098 6.28693 3.32009
135 2 3.93562 4.6969 5.44858
136 2 5.34863 4.6458 6.18203
137 2 2.14167 1.09391 4.70749
138 2 3.4656 1.02338 5.3261
139 2 1.9982 5.13742 6.34064
140 2 2.39865 6.24911 5.39389
141 2 5.48731 1.48804 1.86723
142 2 4.96106 2.77837 1.08989
143 2 5.08692 2.54734 5.25658
144 2 5.61458 1.17063 6.27411
145 2 1.84384 4.62798 8.3758
146 2 1.16203 3.52648 7.46866
147 2 1.65394 4.74445 4.19335
148 2 2.02342 4.47014 2.58462
149 2 3.49336 5.21093 1.06264
150 2 2.54418 6.30152 1.26918
151 2 3.27436 1.31522 1.10646
152 2 2.03413 1.21905 1.93066
153 2 5.65504 1.28278 4.19426
154 2 6.31272 14.0264 3.06245
155 2 5.84177 0.943382 8.48802
156 2 6.44315 13.9473 7.9681
157 2 7.37333 5.10736 7.51752
158 2 6.1476 6.31002 7.65845
159 2 1.64439 1.39348 6.62542
160 2 0.387556 1.49978 7.43508
161 2 8.88006 2.82384 3.33006
162 2 7.85868 1.43239 3.10164
163 2 12.6168 3.40703 1.0913
164 2 13.1218 4.73172 17.5831
165 2 13.6482 5.08633 2.32707
166 2 14.7559 4.89149 3.22477
167 2 13.0984 4.62125 4.48503
168 2 11.8631 4.44011 5.42311
169 2 10.9241 1.20282 5.39553
170 2 9.5888 1.37468 4.44727
171 2 10.0777 6.20103 5.29863
172 2 9.62886 4.96888 4.69198
173 2 11.7228 1.54248 1.30804
174 2 13.0807 1.4311 1.86997
175 2 12.8652 2.58005 5.49231
176 2 13.2454 1.46553 6.32377
177 2 9.24417 4.33078 6.69383
178 2 8.5997 3.27641 7.55181
179 2 7.79531 4.50857 3.04715
180 2 9.52428 5.07745 2.44036
181 2 9.72222 4.9117 17.4293
182 2 11.0438 4.99757 0.783349
183 2 9.75963 1.1937 17.6404
184 2 9.77946 1.28809 1.84826
185 2 13.5308 0.91819 3.95473
186 2 13.8069 14.0853 3.13246
187 2 13.2973 1.31505 8.48369
188 2 13.9211 14.1306 7.65158
189 2 13.7161 4.91506 6.65827
190 2 15.0526 4.86205 7.75461
191 2 7.93872 1.26872 7.58439
192 2 9.41913 1.71912 6.751
193 2 1.70914 8.57392 4.0941
194 2 1.32671 9.79473 3.33182
195 2 4.13729 11.7528 1.20026
196 2 5.05593 10.4586 0.967093
197 2 7.29009 12.1409 3.06895
198 2 5.73932 12.1339 2.61042
199 2 5.48376 11.969 4.60741
200 2 5.57054 11.8493 6.25925
201 2 2.22423 8.52966 6.29754
202 2 3.54625 8.4019 5.48426
203 2 2.47009 13.3876 5.36199
204 2 3.31043 12.0358 5.25484
205 2 4.14282 8.50404 1.31869
206 2 5.57506 8.55532 0.36488
207 2 5.04588 9.86624 5.42217
208 2 5.74971 8.35163 4.52393
209 2 1.75189 11.7566 6.65774
210 2 1.45641 10.4563 7.67076
211 2 0.294671 11.9868 3.29927
212 2 1.75137 11.847 4.16065
213 2 1.91297 12.0896 1.69914
214 2 2.6144 13.3096 1.27072
215 2 1.80037 8.41223 1.70684
216 2 2.09337 8.04539 0.338184
217 2 7.17504 8.18296 3.33361
218 2 5.76804 8.40878 2.41987
219 2 5.76785 8.39723 6.77831
220 2 7.11819 8.2278 7.5545
221 2 5.77837 11.9582 8.37764
222 2 7.07987 12.0234 7.63054
223 2 0.289859 8.55909 7.5535
224 2 1.88474 8.50898 8.3754
225 2 9.4114 8.67156 4.00056
226 2 9.42067 8.55681 2.55976
227 2 11.8054 11.9561 0.746919
228 2 12.5291 10.4868 1.19529
229 2 13.4093 12.0816 2.42932
230 2 13.6103 11.9209 4.07998
231 2 13.2795 11.9641 6.25813
232 2 11.8886 12.1539 5.51758
233 2 10.9994 8.30054 5.40348
234 2 9.69868 8.34986 6.21383
235 2 9.96457 13.4252 5.41384
236 2 9.59448 12.0142 4.56364
237 2 13.0634 8.36075 1.85529
238 2 13.1292 8.51078 17.6216
239 2 13.3267 8.44922 4.48691
240 2 12.7011 9.75855 5.15068
241 2 9.21296 12.0347 8.14915
242 2 9.31249 11.7866 6.52174
243 2 8.71806 10.4018 3.06654
244 2 9.26689 11.7723 2.32187
245 2 10.3082 13.5455 0.993254
246 2 9.87099 12.1573 17.6481
247 2 11.0242 8.36491 1.04986
248 2 10.2035 6.9174 0.999828
249 2 15.0581 8.27336 3.37455
250 2 13.9851 6.99609 3.13134
251 2 13.5661 7.12594 7.25736
252 2 13.4384 8.47104 6.74885
253 2 15.0408 12.2664 7.42016
254 2 13.7502 12.1894 8.44212
255 2 8.8847 9.84547 7.54819
256 2 9.13864 8.603 8.42404
257 2 1.69959 1.39354 11.1917
258 2 0.349985 1.341 12.0257
259 2 5.57852 4.66153 10.6826
260 2 5.45968 4.75484 8.89596
261 2 6.13433 6.47819 11.8973
262 2 5.84863 5.03937 12.7271
263 2 4.06166 4.551 14.0414
264 2 5.15365 3.32518 14.1323
265 2 2.22453 1.33759 13.4432
266 2 1.92987 1.07584 14.7548
267 2 1.97688 5.18139 14.9849
268 2 2.76021 6.35024 14.0916
269 2 4.27213 1.30511 9.82213
270 2 5.09162 2.66419 9.69241
271 2 4.13547 1.25315 14.2
272 2 5.39917 1.32376 15.0781
273 2 1.85278 4.73507 17.0716
274 2 1.27014 3.34159 16.3986
275 2 1.89379 4.82782 12.7519
276 2 1.48807 3.44031 12.0244
277 2 2.20011 4.87093 10.4974
278 2 3.45134 4.66159 9.53595
279 2 2.06425 1.11224 8.79818
280 2 2.3164 14.236 9.96691
281 2 5.83672 1.32833 11.2621
282 2 6.00902 1.16737 12.8522
283 2 6.42878 14.0683 16.4168
284 2 5.86438 1.27345 16.9752
285 2 7.24891 4.76523 16.2913
286 2 6.04495 4.96929 15.2519
287 2 0.359953 1.31154 16.5527
288 2 1.98608 1.43349 17.0339
289 2 7.9496 1.34844 11.9012
290 2 8.99509 2.48775 11.8012
291 2 13.1952 4.6697 8.98648
292 2 13.3567 4.72864 10.6349
293 2 14.8754 5.07626 12.0188
294 2 13.5882 4.79905 12.8633
295 2 13.0637 4.67971 15.0926
296 2 12.6429 3.37608 14.0944
297 2 10.2927 14.1734 14.0911
298 2 9.55043 1.23256 13.4912
299 2 11.0977 5.03277 13.9938
300 2 9.80802 5.10606 13.1743
301 2 12.5717 2.74413 9.99875
302 2 11.636 1.43411 9.72513
303 2 13.0899 1.40753 14.94
304 2 11.7188 1.46084 14.1266
305 2 8.87958 3.44606 16.2631
306 2 9.13509 4.79533 15.571
307 2 9.27097 4.70475 11.0749
308 2 7.75267 4.872 11.8312
309 2 9.79109 5.09856 8.7471
310 2 11.2436 4.89196 9.82946
311 2 9.75335 1.46167 10.548
312 2 9.64399 1.14432 8.86381
313 2 13.414 1.32822 11.1505
314 2 13.3951 1.15517 12.7147
315 2 13.5513 1.11227 17.0922
316 2 14.127 14.1973 16.3221
317 2 14.0302 6.20196 16.1576
318 2 14.8501 5.12498 16.1472
319 2 7.90551 1.66894 16.4332
320 2 9.33761 1.26569 15.578
321 2 1.87814 8.34524 11.1526
322 2 1.21661 9.77947 11.9341
323 2 5.5714 11.871 10.6299
324 2 4.22157 12.1312 9.7558
325 2 5.87074 12.1495 12.8551
326 2 6.30479 13.4001 11.926
327 2 4.19031 11.7417 14.3021
328 2 5.0113 10.604 14.4756
329 2 3.39719 8.32832 14.0699
330 2 2.16025 8.28933 13.2976
331 2 2.48139 13.6011 14.1894
332 2 2.07208 12.2259 14.8145
333 2 5.01819 9.80162 9.76578
334 2 5.36159 8.5343 8.8531
335 2 5.4881 8.37562 13.176
336 2 5.88336 8.61173 14.9875
337 2 0.515336 11.8524 16.1097
338 2 1.78525 12.1253 16.8528
339 2 0.360504 11.8395 11.8918
340 2 1.63954 11.8714 12.9485
341 2 1.93572 12.0732 9.0071
342 2 2.13044 12.2145 10.6314
343 2 2.59742 6.98819 9.77789
344 2 3.45724 8.32517 9.76361
345 2 7.0645 8.3936 11.9379
346 2 5.62119 8.19586 11.1705
347 2 6.29105 6.92286 16.3282
348 2 7.2043 8.33792 16.5054
349 2 5.91647 11.9567 17.361
350 2 5.96968 11.9544 15.5184
351 2 1.74548 8.47886 15.4896
352 2 1.38237 9.73331 16.539
353 2 9.21456 8.52735 12.8542
354 2 9.54693 8.3464 11.4007
355 2 12.6456 10.5348 9.78159
356 2 11.6045 11.6212 9.99153
357 2 14.0747 13.3876 11.8989
358 2 13.5355 12.198 11.0716
359 2 11.7515 11.9373 14.3501
360 2 13.1178 11.8397 13.235
361 2 11.0213 8.22305 14.2919
362 2 9.98232 6.96336 14.3535
363 2 9.58723 12.3688 14.9924
364 2 9.78414 12.1165 13.3371
365 2 13.2011 8.43334 8.99338
366 2 13.1686 8.50482 10.6022
367 2 12.9177 8.52447 13.3004
368 2 12.486 9.91163 14.1747
369 2 8.77035 10.7357 16.3836
370 2 7.88794 11.8396 16.4038
371 2 7.94242 11.8203 12.0547
372 2 8.97109 10.5262 12.0101
373 2 10.0192 13.4182 9.70974
374 2 9.7293 12.0997 10.6156
375 2 10.144 7.07979 9.72133
376 2 11.0576 8.17881 9.71453
377 2 14.6639 8.27755 11.9069
378 2 14.0335 6.93284 11.9733
379 2 14.8317 8.19275 16.3319
380 2 13.6685 8.33114 15.5345
381 2 13.6321 12.0227 17.2183
382 2 13.4631 12.0815 15.6457
383 2 9.19931 8.67234 15.5793
384 2 9.36909 8.37257 17.146
ITEM: TIMESTEP
400
ITEM: NUMBER OF ATOMS
384
ITEM: BOX BOUNDS pp pp pp
4.6654049692420863e-01 1.5179137033075790e+01
4.3348055518130035e-01 1.4273664734818711e+01
6.2313843955395143e-01 1.7449898590446061e+01
ITEM: ATOMS id type x y z
1 1 1.38235 1.66865 3.29421
2 1 4.99603 4.48534 1.04588
3 1 6.18495 5.10787 3.27354
4 1 4.81725 4.17451 5.14026
5 1 2.59178 0.594076 5.28798
6 1 2.48837 5.18797 5.27195
7 1 4.88084 1.79136 1.17056
8 1 4.96161 1.58524 5.30388
9 1 1.21154 4.36731 7.42903
10 1 1.23009 4.37227 3.0708
11 1 2.50746 5.02036 1.08077
12 1 2.47367 0.886091 1.08989
13 1 6.1479 0.853299 3.21851
14 1 6.27157 0.803731 7.304
15 1 6.1844 5.16271 7.18279
16 1 1.45671 1.71485 7.31845
17 1 8.54496 1.77975 3.15285
18 1 12.2966 4.15602 0.860966
19 1 13.4376 5.04629 2.9765
20 1 12.2514 4.09307 5.13186
21 1 9.87961 0.703789 5.11133
22 1 9.81208 5.03446 5.21618
23 1 12.3485 1.57881 1.00351
24 1 12.4052 1.51606 5.28792
25 1 8.57865 4.11227 7.3328
26 1 8.60041 4.36643 3.02768
27 1 9.84719 5.20224 0.832384
28 1 9.7425 0.828106 1.16225
29 1 13.6718 0.949143 3.10246
30 1 13.6552 0.793937 7.41897
31 1 13.5027 5.16047 7.19608
32 1 8.71434 1.46176 7.29705
33 1 1.2875 8.55414 3.14328
34 1 4.92419 11.1252 1.04423
35 1 6.28111 12.0268 3.02224
36 1 4.94993 11.3221 5.1183
37 1 2.4956 7.74635 5.31542
38 1 2.35805 11.8528 5.20637
39 1 4.78915 8.60888 0.990418
40 1 4.92519 8.58958 5.1316
41 1 1.22733 11.0985 7.36145
42 1 1.22211 11.2341 3.10782
43 1 2.56327 12.1718 1.05691
44 1 2.41371 7.53976 1.00826
45 1 6.26097 7.75245 3.03836
46 1 6.14861 7.7773 7.2867
47 1 6.04394 11.994 7.36697
48 1 1.20274 8.46978 7.37219
49 1 8.6556 8.58856 3.07746
50 1 12.3263 11.2148 1.07775
51 1 13.4712 12.214 3.12539
52 1 12.3341 11.335 5.30888
53 1 9.94666 7.67053 5.28266
54 1 9.80029 12.0284 5.30503
55 1 12.3945 8.61319 1.09988
56 1 12.2373 8.77341 5.10371
57 1 8.5048 11.2132 7.30197
58 1 8.73377 11.2064 3.15085
59 1 9.95384 12.1363 1.08113
60 1 9.8391 7.69799 0.981937
61 1 13.5214 7.68587 3.09444
62 1 13.3815 7.82026 7.26876
63 1 13.516 12.1319 7.5014
64 1 8.49691 8.63962 7.32581
65 1 1.41982 1.59227 11.5378
66 1 4.95119 4.24243 9.36784
67 1 6.22266 5.20438 11.5192
68 1 5.04775 4.3985 13.5461
69 1 2.56297 0.786812 13.7412
70 1 2.48109 5.19214 13.7146
71 1 5.00699 1.61108 9.63998
72 1 4.92825 1.8552 13.7901
73 1 1.16569 4.30796 15.6832
74 1 1.31013 4.26548 11.6796
75 1 2.51548 5.19751 9.60692
76 1 2.53797 0.816395 9.44776
77 1 6.2171 0.769038 11.7776
78 1 6.11051 0.76956 15.9423
79 1 6.27299 5.19761 15.7937
80 1 1.24281 1.65623 15.7325
81 1 8.55615 1.75609 11.5287
82 1 12.3794 4.30265 9.377
83 1 13.54 5.09342 11.6253
84 1 12.1693 4.14014 13.5961
85 1 9.75108 0.789939 13.6374
86 1 9.72989 5.05375 13.4735
87 1 12.2855 1.73316 9.51219
88 1 12.2378 1.55795 13.742
89 1 8.68241 4.10558 15.6743
90 1 8.54758 4.29483 11.3633
91 1 9.88449 5.16599 9.24284
92 1 9.91175 0.700162 9.5301
93 1 13.6319 0.889186 11.5655
94 1 13.558 0.613906 15.9129
95 1 13.4154 5.1442 15.5939
96 1 8.62709 1.63342 15.7357
97 1 1.20048 8.67999 11.5835
98 1 4.86162 11.2546 9.51377
99 1 6.1621 12.0024 11.6416
100 1 4.82853 11.2497 13.7013
101 1 2.38318 7.8088 13.6257
102 1 2.40625 11.929 13.5955
103 1 4.75501 8.64191 9.43362
104 1 4.76903 8.62929 13.7215
105 1 1.34259 11.064 15.8257
106 1 1.19236 11.3151 11.5113
107 1 2.42693 12.1568 9.38756
108 1 2.38865 7.67753 9.47195
109 1 6.11357 7.94026 11.5533
110 1 6.14076 7.73915 15.7466
111 1 6.24128 12.0164 15.7692
112 1 1.24391 8.5793 15.743
113 1 8.72474 8.59781 11.5213
114 1 12.1639 11.1985 9.43463
115 1 13.5484 12.2123 11.4801
116 1 12.1117 11.2284 13.5471
117 1 9.78177 7.66072 13.6841
118 1 9.79309 12.0581 13.4883
119 1 12.2375 8.58249 9.4689
120 1 12.2174 8.61666 13.5801
121 1 8.70076 11.2679 15.8322
122 1 8.52859 11.0584 11.5335
123 1 9.73481 11.9678 9.41161
124 1 9.84523 7.74785 9.46004
125 1 13.5044 7.67357 11.5412
126 1 13.4856 7.75823 15.7002
127 1 13.6163 11.8637 15.8005
128 1 8.53447 8.60971 15.7471
129 2 15.1608 1.28646 3.35372
130 2 1.34961 2.77408 3.2773
131 2 5.48272 4.49784 1.8381
132 2 5.5272 4.91033 17.0185
133 2 5.82952 4.72311 4.02094
134 2 6.10793 6.01553 3.10229
135 2 3.78521 4.54333 5.18785
136 2 5.3008 4.6502 5.9566
137 2 2.2573 1.0414 4.43255
138 2 3.57371 0.732027 5.2779
139 2 1.94044 4.8192 6.07069
140 2 2.32642 6.19409 5.27589
141 2 5.54082 1.42598 1.91123
142 2 4.97716 2.75511 1.00194
143 2 4.89199 2.6742 5.37897
144 2 5.3452 1.32902 6.12242
145 2 1.83904 4.55035 8.23082
146 2 1.11154 3.4962 7.38595
147 2 1.77912 4.66548 3.77397
148 2 1.71112 4.72642 2.21766
149 2 3.45761 4.85892 1.12053
150 2 2.44254 6.13341 0.807252
151 2 3.49911 1.37196 1.08802
152 2 1.96164 1.24903 1.98406
153 2 5.6147 1.12177 4.10045
154 2 6.08337 13.7323 3.25755
155 2 5.81016 1.20163 8.10369
156 2 5.99214 13.7005 7.26036
157 2 7.16885 4.8973 7.36457
158 2 6.18989 6.23696 7.35716
159 2 1.92838 1.32781 6.57994
160 2 0.506219 1.54839 7.26436
161 2 8.36087 2.60448 3.34933
162 2 7.50634 1.32824 3.11736
163 2 12.2468 2.95966 0.759721
164 2 12.6145 4.6269 16.8574
165 2 12.8312 4.74978 2.11966
166 2 14.4525 4.75402 2.81159
167 2 12.5891 4.44998 4.13368
168 2 11.3868 4.45559 5.19211
169 2 10.8061 0.86686 5.30415
170 2 9.65842 1.26029 4.47065
171 2 10.0396 6.06889 5.3532
172 2 9.23605 4.81836 4.28432
173 2 11.2398 1.33466 1.1247
174 2 12.8771 1.53854 1.8883
175 2 12.3795 2.52433 5.35132
176 2 13.0379 1.20498 5.98463
177 2 9.09536 4.42716 6.4555
178 2 8.61201 3.17605 7.24762
179 2 7.68431 4.70518 3.12584
180 2 8.95428 4.76925 2.27738
181 2 9.68624 4.78361 16.6631
182 2 10.7374 4.81413 0.937949
183 2 9.23597 1.16454 17.2498
184 2 9.38107 1.18879 2.00553
185 2 12.9098 1.11884 4.06277
186 2 13.532 13.7017 3.2843
187 2 13.1018 1.14531 8.24948
188 2 13.423 13.5824 7.60334
189 2 13.2068 4.60781 6.54156
190 2 14.4964 4.96212 7.3579
191 2 7.70362 1.46664 7.43718
192 2 9.22545 1.26974 6.30489
193 2 1.62894 8.48064 4.13507
194 2 1.40218 9.46669 2.94347
195 2 3.85863 11.6065 1.0344
196 2 4.87501 10.0153 1.0532
197 2 7.30632 11.6957 3.0814
198 2 5.81217 11.4507 2.22744
199 2 5.48192 11.5385 4.36662
200 2 5.40541 11.5783 6.04391
201 2 1.89336 8.02653 6.13525
202 2 3.32811 8.14997 5.26876
203 2 2.39144 12.9959 5.38137
204 2 3.36743 11.5239 5.10703
205 2 3.86652 8.28923 1.17391
206 2 5.2632 8.27207 17.0324
207 2 4.79755 9.69944 5.04721
208 2 5.36206 8.40762 4.18572
209 2 1.72798 11.4124 6.52945
210 2 1.04879 10.1451 7.40729
211 2 14.9845 11.5507 3.39284
212 2 1.76201 11.3136 3.98907
213 2 2.01891 12.1313 2.00414
214 2 2.63492 13.2235 0.85638
215 2 1.78329 7.79977 1.69863
216 2 1.99751 7.96173 16.9945
217 2 7.18794 8.03211 3.05841
218 2 5.65198 7.99176 2.24111
219 2 5.68783 7.93653 6.40114
220 2 7.18786 8.06186 7.29803
221 2 5.71899 11.7805 8.3153
222 2 7.01759 11.7126 7.22351
223 2 14.8312 8.23496 7.47311
224 2 1.61781 8.10716 8.3602
225 2 8.97361 8.29647 3.9569
226 2 9.26289 8.19362 2.366
227 2 11.3423 11.6955 0.946674
228 2 12.3548 10.2082 1.09754
229 2 12.9911 11.8681 2.36065
230 2 13.2621 12.056 3.89112
231 2 12.8042 11.9185 5.99794
232 2 11.2293 11.7002 5.36144
233 2 10.6329 8.28261 5.33137
234 2 9.29701 8.09206 6.12107
235 2 9.92647 12.938 5.1474
236 2 9.42667 11.6678 4.47886
237 2 12.9841 8.37858 2.02526
238 2 12.8897 8.3614 16.9789
239 2 12.7061 8.5057 4.23341
240 2 12.2119 9.83555 5.1797
241 2 8.96776 11.6872 8.03602
242 2 8.90186 11.4777 6.44107
243 2 8.79862 10.3196 2.94948
244 2 9.14963 11.6407 2.17876
245 2 9.84797 13.1294 1.21067
246 2 9.61943 11.7467 17.0758
247 2 10.7671 8.16653 0.991254
248 2 9.9114 6.58822 0.855895
249 2 14.4803 8.07945 3.16105
250 2 13.4117 6.70072 3.08917
251 2 13.1717 6.78431 7.21029
252 2 12.9364 8.11288 6.46592
253 2 14.4275 11.7148 7.38197
254 2 13.0775 11.5845 8.19901
255 2 8.49614 9.66605 7.38195
256 2 8.76715 8.22267 8.03824
257 2 1.83946 1.28525 10.6147
258 2 15.1428 1.38735 11.5497
259 2 5.6212 4.59428 10.1634
260 2 5.49762 4.49122 8.45259
261 2 6.12867 6.17799 11.534
262 2 5.70336 4.92611 12.3491
263 2 4.12179 4.8909 13.7008
264 2 4.67381 3.37961 13.717
265 2 2.04172 0.965723 12.7848
266 2 2.06056 1.15838 14.444
267 2 2.08611 4.86494 14.4696
268 2 2.54073 6.25393 13.7338
269 2 4.03726 1.4874 9.46071
270 2 4.89221 2.59592 9.50034
271 2 4.00571 1.41995 13.9252
272 2 5.59008 1.50401 14.527
273 2 1.83781 4.46947 16.5201
274 2 1.07395 3.29644 15.3459
275 2 1.85859 4.53305 12.5599
276 2 1.47104 3.30209 11.55
277 2 2.20298 4.78311 10.4041
278 2 3.45446 4.91016 9.51878
279 2 2.27454 1.08557 8.42904
280 2 2.4337 13.806 9.26499
281 2 5.58382 0.889434 11.0303
282 2 5.73628 1.27698 12.4636
283 2 6.03642 13.5551 15.9164
284 2 5.43918 1.31844 16.7045
285 2 7.31523 4.84494 15.6746
286 2 5.91928 4.83898 14.9533
287 2 15.0297 1.20599 15.812
288 2 1.59873 1.29976 16.6972
289 2 7.71565 1.53201 11.4772
290 2 8.64597 2.65133 11.4224
291 2 13.0079 4.58183 8.52415
292 2 12.9128 4.64501 10.2391
293 2 14.4764 4.79091 11.6235
294 2 12.9404 4.75144 12.2619
295 2 12.8758 4.67982 14.2731
296 2 12.3367 3.20062 13.7087
297 2 9.61101 13.4616 13.6932
298 2 9.29904 1.14519 12.7295
299 2 10.4998 4.78136 13.3991
300 2 9.19899 4.83207 12.6681
301 2 12.186 2.70008 9.77676
302 2 11.3457 1.3095 9.33174
303 2 12.5506 1.26814 14.7141
304 2 11.3085 1.19222 13.6805
305 2 8.71489 3.15503 15.6281
306 2 8.98939 4.51996 14.7533
307 2 8.97477 4.61502 10.4494
308 2 7.74731 4.5956 11.1567
309 2 9.47915 4.61017 8.5661
310 2 10.7591 4.80265 9.3275
311 2 9.47543 1.15926 10.4448
312 2 9.53192 1.05953 8.77505
313 2 13.1796 0.954958 10.8534
314 2 12.9933 1.09099 12.2682
315 2 13.0801 0.965418 16.6856
316 2 13.5318 13.4862 15.9486
317 2 13.428 6.13479 15.2781
318 2 14.513 4.8844 15.5895
319 2 7.67091 1.248 15.7104
320 2 9.23713 1.24926 14.7206
321 2 1.66369 8.31846 10.6644
322 2 1.08965 9.77616 11.5711
323 2 5.31931 11.6105 10.443
324 2 3.88205 11.647 9.35597
325 2 5.59099 11.5971 12.346
326 2 6.10535 13.0084 11.5827
327 2 3.84168 11.5876 13.758
328 2 4.74726 10.2995 13.6406