ITEM: TIMESTEP
0
ITEM: NUMBER OF ATOMS
384
ITEM: BOX BOUNDS pp pp pp
0.0000000000000000e+00 1.5645677530000000e+01
0.0000000000000000e+00 1.4707145290000000e+01
0.0000000000000000e+00 1.8073037029999998e+01
ITEM: ATOMS id type x y z
1 1 1.38 1.76 3.37
2 1 5.2 4.47 1.11
3 1 6.59 5.39 3.31
4 1 5.28 4.49 5.56
5 1 2.59 0.84 5.67
6 1 2.69 5.43 5.56
7 1 5.2 1.71 1.07
8 1 5.2 1.73 5.58
9 1 1.32 4.61 7.82
10 1 1.3 4.52 3.36
11 1 2.61 5.41 1.1
12 1 2.59 0.82 1.07
13 1 6.54 0.87 3.33
14 1 6.54 0.88 7.83
15 1 6.51 5.4 7.86
16 1 1.35 1.85 7.92
17 1 9.2 1.76 3.37
18 1 13.05 4.55 1.15
19 1 14.35 5.46 3.4
20 1 13.1 4.49 5.66
21 1 10.41 0.84 5.67
22 1 10.51 5.43 5.65
23 1 13.07 1.79 1.07
24 1 13.02 1.73 5.58
25 1 9.15 4.61 7.91
26 1 9.2 4.52 3.4
27 1 10.45 5.49 1.15
28 1 10.49 0.82 1.12
29 1 14.36 0.87 3.33
30 1 14.36 0.88 7.83
31 1 14.36 5.48 7.9
32 1 9.17 1.85 7.92
33 1 1.3 9.11 3.32
34 1 5.3 11.9 1.11
35 1 6.53 12.81 3.4
36 1 5.2 11.84 5.61
37 1 2.59 8.19 5.58
38 1 2.61 12.79 5.61
39 1 5.25 9.14 1.16
40 1 5.2 9.08 5.67
41 1 1.32 11.96 7.91
42 1 1.38 11.87 3.31
43 1 2.69 12.77 1.06
44 1 2.67 8.17 1.12
45 1 6.49 8.14 3.42
46 1 6.49 8.16 7.92
47 1 6.53 12.83 7.81
48 1 1.35 9.21 7.83
49 1 9.09 9.19 3.37
50 1 13.13 11.9 1.11
51 1 14.44 12.82 3.35
52 1 13.1 11.84 5.56
53 1 10.41 8.19 5.58
54 1 10.51 12.79 5.65
55 1 12.99 9.14 1.12
56 1 13.02 9.08 5.67
57 1 9.12 11.89 7.86
58 1 9.15 11.95 3.4
59 1 10.51 12.77 1.15
60 1 10.38 8.25 1.12
61 1 14.29 8.22 3.37
62 1 14.36 8.24 7.92
63 1 14.36 12.83 7.81
64 1 9.12 9.13 7.83
65 1 1.35 1.83 12.45
66 1 5.2 4.47 10.14
67 1 6.59 5.39 12.34
68 1 5.3 4.56 14.65
69 1 2.67 0.84 14.66
70 1 2.69 5.43 14.6
71 1 5.28 1.71 10.15
72 1 5.25 1.81 14.61
73 1 1.32 4.61 16.85
74 1 1.32 4.59 12.35
75 1 2.63 5.49 10.09
76 1 2.64 0.89 10.2
77 1 6.57 0.79 12.41
78 1 6.54 0.88 16.87
79 1 6.53 5.48 16.94
80 1 1.35 1.85 16.86
81 1 9.2 1.76 12.41
82 1 13.02 4.47 10.14
83 1 14.35 5.46 12.34
84 1 13.05 4.57 14.6
85 1 10.46 0.91 14.71
86 1 10.46 5.51 14.69
87 1 13.1 1.71 10.15
88 1 13.07 1.81 14.61
89 1 9.15 4.61 16.94
90 1 9.2 4.52 12.44
91 1 10.45 5.49 10.18
92 1 10.49 0.82 10.16
93 1 14.39 0.79 12.41
94 1 14.36 0.88 16.87
95 1 14.33 5.4 16.89
96 1 9.17 1.85 16.96
97 1 1.3 9.11 12.45
98 1 5.28 11.83 10.1
99 1 6.59 12.74 12.34
100 1 5.3 11.92 14.65
101 1 2.59 8.19 14.71
102 1 2.69 12.79 14.6
103 1 5.2 9.07 10.2
104 1 5.17 9.16 14.66
105 1 1.38 11.89 16.85
106 1 1.38 11.87 12.35
107 1 2.71 12.84 10.14
108 1 2.56 8.25 10.16
109 1 6.49 8.14 12.46
110 1 6.46 8.24 16.91
111 1 6.61 12.83 16.89
112 1 1.3 9.13 16.96
113 1 9.09 9.19 12.41
114 1 13.13 11.9 10.14
115 1 14.41 12.74 12.44
116 1 13.1 11.84 14.69
117 1 10.38 8.27 14.66
118 1 10.53 12.86 14.64
119 1 12.99 9.14 10.15
120 1 13.02 9.08 14.7
121 1 9.23 11.96 16.9
122 1 9.23 11.95 12.39
123 1 10.51 12.77 10.09
124 1 10.38 8.25 10.16
125 1 14.29 8.22 12.41
126 1 14.31 8.16 16.96
127 1 14.44 12.83 16.89
128 1 9.09 9.21 16.91
129 2 0.46 1.48 3.37
130 2 1.33 2.71 3.37
131 2 5.68 4.81 1.86
132 2 5.67 4.81 0.35
133 2 6.13 5.1 4.1
134 2 6.56 6.34 3.34
135 2 4.38 4.84 5.6
136 2 5.7 4.83 6.36
137 2 2.17 1.18 4.88
138 2 3.49 1.17 5.63
139 2 2.23 5.15 6.35
140 2 2.65 6.39 5.59
141 2 5.65 1.43 1.86
142 2 5.23 2.67 1.1
143 2 5.23 2.69 5.61
144 2 5.65 1.45 6.37
145 2 1.78 4.88 8.61
146 2 1.33 3.65 7.85
147 2 1.78 4.85 4.11
148 2 1.78 4.85 2.6
149 2 3.52 5.14 1.1
150 2 2.64 6.37 1.11
151 2 3.49 1.15 1.11
152 2 2.17 1.16 1.87
153 2 6.09 1.14 4.12
154 2 6.53 14.6171 3.37
155 2 6.09 1.15 8.63
156 2 6.53 14.6371 7.86
157 2 7.43 5.14 7.86
158 2 6.53 6.36 7.86
159 2 1.77 1.51 7.13
160 2 0.46 1.51 7.89
161 2 9.16 2.71 3.37
162 2 8.28 1.48 3.37
163 2 13.06 3.59 1.12
164 2 13.5 4.82 0.36
165 2 13.94 5.12 2.61
166 2 15.25 5.14 3.36
167 2 13.52 4.82 4.86
168 2 12.21 4.84 5.62
169 2 11.31 1.17 5.63
170 2 10 1.18 4.88
171 2 10.47 6.39 5.62
172 2 10.05 5.15 4.86
173 2 12.18 1.46 1.11
174 2 13.49 1.45 1.86
175 2 13.05 2.69 5.61
176 2 13.48 1.45 6.37
177 2 9.61 4.88 7.11
178 2 9.16 3.65 7.88
179 2 8.3 4.84 3.36
180 2 9.61 4.85 2.61
181 2 10.04 5.17 0.35
182 2 11.35 5.14 1.11
183 2 10.02 1.16 0.36
184 2 10.02 1.16 1.88
185 2 13.91 1.14 4.12
186 2 14.35 14.6171 3.37
187 2 13.91 1.15 8.63
188 2 14.36 14.6371 7.86
189 2 13.94 5.14 7.11
190 2 15.26 5.16 7.86
191 2 8.28 1.51 7.89
192 2 9.59 1.51 7.13
193 2 1.75 8.83 4.12
194 2 1.33 10.07 3.36
195 2 4.39 12.19 1.1
196 2 5.25 10.94 1.11
197 2 7.43 12.49 3.36
198 2 6.12 12.48 2.61
199 2 5.68 12.17 4.85
200 2 5.68 12.18 6.37
201 2 2.17 8.54 6.37
202 2 3.49 8.52 5.61
203 2 2.64 13.74 5.61
204 2 3.52 12.51 5.61
205 2 4.35 8.81 1.13
206 2 5.66 8.81 0.36
207 2 5.23 10.04 5.63
208 2 5.65 8.8 4.88
209 2 1.78 12.24 7.11
210 2 1.34 11.01 7.88
211 2 0.48 12.2 3.35
212 2 1.79 12.21 4.11
213 2 2.23 12.49 1.85
214 2 2.65 13.72 1.09
215 2 2.19 8.52 1.88
216 2 2.2 8.52 0.36
217 2 7.38 8.49 3.39
218 2 6.07 8.48 2.63
219 2 6.07 8.5 7.13
220 2 7.38 8.51 7.89
221 2 6.12 12.49 8.61
222 2 7.43 12.51 7.85
223 2 0.46 8.86 7.86
224 2 1.77 8.86 8.62
225 2 9.57 8.85 4.13
226 2 9.57 8.84 2.61
227 2 12.21 12.19 1.1
228 2 13.08 10.94 1.11
229 2 13.95 12.48 2.6
230 2 13.95 12.48 4.11
231 2 13.52 12.18 6.36
232 2 12.21 12.19 5.6
233 2 11.31 8.52 5.61
234 2 10 8.54 6.37
235 2 10.47 13.74 5.62
236 2 10.05 12.51 4.86
237 2 13.47 8.8 1.87
238 2 13.47 8.81 0.36
239 2 13.48 8.8 4.88
240 2 13.05 10.04 5.63
241 2 9.6 12.22 8.62
242 2 9.6 12.22 7.11
243 2 9.16 10.99 3.37
244 2 9.61 12.22 2.61
245 2 10.48 13.72 1.13
246 2 10.05 12.49 0.35
247 2 11.3 8.53 1.12
248 2 10.43 7.29 1.11
249 2 15.2 8.51 3.37
250 2 14.34 7.26 3.37
251 2 14.36 7.28 7.88
252 2 13.91 8.52 7.13
253 2 15.26 12.51 7.85
254 2 13.94 12.49 8.61
255 2 9.15 10.09 7.86
256 2 9.57 8.85 8.62
257 2 1.77 1.49 11.66
258 2 0.46 1.49 12.42
259 2 5.68 4.81 10.9
260 2 5.67 4.81 9.38
261 2 6.56 6.34 12.38
262 2 6.13 5.1 13.14
263 2 4.39 4.85 14.65
264 2 5.25 3.61 14.65
265 2 2.19 1.18 13.9
266 2 2.19 1.18 15.42
267 2 2.23 5.15 15.39
268 2 2.65 6.39 14.63
269 2 4.36 1.44 10.15
270 2 5.24 2.67 10.15
271 2 4.35 1.48 14.65
272 2 5.66 1.47 15.41
273 2 1.78 4.88 17.65
274 2 1.33 3.65 16.89
275 2 1.78 4.87 13.14
276 2 1.34 3.64 12.39
277 2 2.21 5.16 10.89
278 2 3.52 5.14 10.13
279 2 2.19 1.18 9.41
280 2 2.63 14.6471 10.16
281 2 6.09 1.13 11.65
282 2 6.09 1.14 13.17
283 2 6.53 14.6371 16.9
284 2 6.09 1.15 17.67
285 2 7.43 5.16 16.9
286 2 6.12 5.14 16.15
287 2 0.46 1.51 16.89
288 2 1.77 1.51 17.66
289 2 8.28 1.48 12.41
290 2 9.16 2.71 12.4
291 2 13.5 4.81 9.38
292 2 13.5 4.81 10.9
293 2 15.25 5.14 12.39
294 2 13.94 5.13 13.14
295 2 13.51 4.84 15.39
296 2 13.06 3.61 14.64
297 2 10.46 14.6671 14.67
298 2 10.01 1.19 13.91
299 2 11.35 5.16 14.65
300 2 10.04 5.17 13.9
301 2 13.07 2.67 10.15
302 2 12.18 1.44 10.15
303 2 13.49 1.47 15.41
304 2 12.18 1.48 14.65
305 2 9.16 3.65 16.91
306 2 9.61 4.88 16.15
307 2 9.61 4.85 11.64
308 2 8.3 4.84 12.4
309 2 10.04 5.17 9.39
310 2 11.35 5.14 10.15
311 2 10.02 1.16 10.91
312 2 10.02 1.16 9.4
313 2 13.92 1.13 11.65
314 2 13.92 1.14 13.17
315 2 13.91 1.15 17.67
316 2 14.36 14.6371 16.9
317 2 14.36 6.36 16.9
318 2 15.25 5.14 16.9
319 2 8.28 1.51 16.93
320 2 9.59 1.51 16.17
321 2 1.75 8.83 11.66
322 2 1.33 10.07 12.41
323 2 5.7 12.16 10.89
324 2 4.38 12.17 10.13
325 2 6.13 12.46 13.14
326 2 6.56 13.7 12.38
327 2 4.39 12.21 14.65
328 2 5.25 10.96 14.65
329 2 3.49 8.52 14.67
330 2 2.17 8.53 13.91
331 2 2.65 13.74 14.63
332 2 2.23 12.5 15.39
333 2 5.22 10.02 10.17
334 2 5.65 8.79 9.4
335 2 5.65 8.81 13.9
336 2 5.65 8.82 15.42
337 2 0.48 12.22 16.89
338 2 1.79 12.22 17.65
339 2 0.48 12.2 12.39
340 2 1.79 12.21 13.14
341 2 2.23 12.52 9.38
342 2 2.23 12.51 10.89
343 2 2.61 7.29 10.15
344 2 3.48 8.53 10.16
345 2 7.38 8.49 12.42
346 2 6.07 8.48 11.66
347 2 6.52 7.28 16.91
348 2 7.37 8.53 16.91
349 2 6.14 12.5 17.65
350 2 6.13 12.5 16.14
351 2 1.75 8.84 16.16
352 2 1.33 10.09 16.92
353 2 9.57 8.85 13.16
354 2 9.57 8.84 11.65
355 2 13.08 10.94 10.15
356 2 12.21 12.19 10.14
357 2 14.37 13.7 12.41
358 2 13.95 12.46 11.65
359 2 12.21 12.19 14.66
360 2 13.52 12.17 13.9
361 2 11.3 8.55 14.66
362 2 10.43 7.31 14.66
363 2 10.05 12.53 15.4
364 2 10.05 12.52 13.89
365 2 13.47 8.81 9.39
366 2 13.47 8.8 10.91
367 2 13.48 8.8 13.91
368 2 13.05 10.04 14.67
369 2 9.19 11.01 16.9
370 2 8.31 12.24 16.9
371 2 8.31 12.22 12.39
372 2 9.19 10.99 12.4
373 2 10.48 13.72 10.13
374 2 10.05 12.49 10.88
375 2 10.43 7.29 10.15
376 2 11.3 8.53 10.16
377 2 15.2 8.51 12.41
378 2 14.34 7.26 12.4
379 2 15.2 8.51 16.93
380 2 13.89 8.5 16.17
381 2 13.96 12.5 17.65
382 2 13.95 12.5 16.14
383 2 9.57 8.86 16.15
384 2 9.56 8.86 17.67
ITEM: TIMESTEP
200
ITEM: NUMBER OF ATOMS
384
ITEM: BOX BOUNDS pp pp pp
2.4136573719089505e-01 1.5404311792809107e+01
2.3499875751976607e-01 1.4472146532480238e+01
3.2049711169290340e-01 1.7752539918307097e+01
ITEM: ATOMS id type x y z
1 1 1.39701 1.70967 3.26951
2 1 4.99395 4.47163 1.00179
3 1 6.32135 5.24739 3.21198
4 1 5.03674 4.36118 5.43567
5 1 2.59667 0.662629 5.48938
6 1 2.47017 5.24305 5.46313
7 1 5.00723 1.73632 1.02606
8 1 5.11507 1.62322 5.4468
9 1 1.26429 4.41048 7.60818
10 1 1.23273 4.40581 3.27201
11 1 2.50606 5.21614 1.17504
12 1 2.53089 0.847266 1.07287
13 1 6.2364 0.885527 3.22669
14 1 6.34577 0.697774 7.59242
15 1 6.32439 5.26982 7.5405
16 1 1.401 1.74599 7.5768
17 1 8.83505 1.79573 3.26877
18 1 12.6089 4.39559 1.04764
19 1 13.9483 5.27002 3.20278
20 1 12.7994 4.43532 5.40384
21 1 10.0549 0.895884 5.33481
22 1 10.1429 5.21624 5.46887
23 1 12.745 1.6399 1.0535
24 1 12.7087 1.73136 5.38319
25 1 8.85709 4.27619 7.59683
26 1 8.89595 4.49373 3.21961
27 1 10.1233 5.31263 0.999705
28 1 10.1989 0.929244 1.07081
29 1 13.931 0.73422 3.1371
30 1 13.998 0.873045 7.61885
31 1 13.9777 5.27328 7.65549
32 1 8.87264 1.62962 7.55304
33 1 1.31816 8.77722 3.26407
34 1 5.09816 11.478 1.1489
35 1 6.32738 12.4067 3.24731
36 1 4.97663 11.5579 5.40309
37 1 2.46497 8.02842 5.43904
38 1 2.46316 12.3521 5.35611
39 1 5.04885 8.82669 1.13912
40 1 5.10671 8.90383 5.38737
41 1 1.29372 11.4931 7.55343
42 1 1.25983 11.4516 3.18595
43 1 2.57937 12.4206 0.997939
44 1 2.51717 7.90331 1.11988
45 1 6.3179 7.94963 3.30324
46 1 6.23904 7.90783 7.52213
47 1 6.27553 12.3786 7.52221
48 1 1.33102 8.88561 7.63858
49 1 8.81951 8.78553 3.2653
50 1 12.7302 11.4196 1.05705
51 1 13.9399 12.4023 3.22604
52 1 12.6792 11.6784 5.37491
53 1 10.047 7.89736 5.37318
54 1 10.1512 12.4117 5.41065
55 1 12.6694 8.78722 1.11731
56 1 12.5181 8.79873 5.29972
57 1 8.81357 11.5007 7.46107
58 1 8.82862 11.5329 3.22678
59 1 10.1445 12.4834 1.02466
60 1 10.145 8.0027 1.19219
61 1 14.0098 7.94057 3.23976
62 1 13.8687 7.9136 7.49559
63 1 14.08 12.4896 7.63792
64 1 8.76413 8.7691 7.57068
65 1 1.32326 1.72596 11.9816
66 1 5.09877 4.39752 9.74681
67 1 6.33684 5.33105 11.9052
68 1 5.11622 4.37092 14.0183
69 1 2.54311 0.848901 14.2407
70 1 2.59694 5.271 14.1036
71 1 5.13227 1.75618 9.86818
72 1 5.14337 1.6441 14.2151
73 1 1.28535 4.4298 16.3272
74 1 1.39409 4.41391 11.9778
75 1 2.63451 5.16978 9.67146
76 1 2.62019 0.938882 9.79152
77 1 6.30532 0.845275 11.9644
78 1 6.42619 0.79866 16.3585
79 1 6.37983 5.3334 16.2882
80 1 1.25269 1.73386 16.3395
81 1 8.85379 1.7212 12.0184
82 1 12.7392 4.41987 9.86755
83 1 13.9475 5.29819 11.9261
84 1 12.7158 4.35049 14.0595
85 1 10.1235 0.954076 14.2134
86 1 10.1276 5.16942 14.0035
87 1 12.6837 1.72696 9.75096
88 1 12.7053 1.77049 14.2088
89 1 8.84337 4.35187 16.3275
90 1 8.85607 4.45381 11.8732
91 1 10.1722 5.29494 9.69934
92 1 10.1605 0.882702 9.69018
93 1 13.9699 0.79541 11.8927
94 1 14.0224 0.863905 16.2582
95 1 13.8671 5.25428 16.2108
96 1 8.90921 1.81162 16.3514
97 1 1.15447 8.78463 11.9513
98 1 5.11259 11.591 9.79112
99 1 6.3517 12.3746 11.9757
100 1 5.13714 11.473 14.1526
101 1 2.50976 7.97554 14.1608
102 1 2.59427 12.4464 14.0561
103 1 5.02248 8.82815 9.71031
104 1 5.0661 8.78198 14.1788
105 1 1.42487 11.4363 16.2152
106 1 1.31119 11.537 11.9735
107 1 2.56236 12.4494 9.83023
108 1 2.55249 7.92611 9.78332
109 1 6.16285 8.00127 12.0457
110 1 6.25817 7.9957 16.35
111 1 6.36519 12.3939 16.3913
112 1 1.24648 8.79251 16.3482
113 1 8.80753 8.76148 12.0001
114 1 12.638 11.5474 9.80824
115 1 13.9237 12.3747 11.9358
116 1 12.804 11.4709 14.1105
117 1 10.0084 7.88699 14.2263
118 1 10.2512 12.4211 14.1946
119 1 12.6478 8.86914 9.84115
120 1 12.5878 8.83006 14.2029
121 1 8.9432 11.6129 16.3092
122 1 8.89661 11.4116 11.9241
123 1 10.0959 12.4802 9.69997
124 1 10.1324 7.97077 9.83208
125 1 13.8193 7.96752 11.9427
126 1 13.9162 8.01505 16.3422
127 1 14.0512 12.3639 16.3424
128 1 8.76964 8.83051 16.3842
129 2 0.52633 1.2622 3.30895
130 2 1.1069 2.65057 3.33705
131 2 5.43191 4.89962 2.03243
132 2 5.72644 4.89132 0.363806
133 2 5.55658 4.93871 4.06091
134 2 6.19606 6.25904 3.25048
135 2 3.99269 4.63743 5.44804
136 2 5.3322 4.68079 6.27041
137 2 2.07056 1.06085 4.70157
138 2 3.41177 1.15285 5.34903
139 2 1.95301 5.0932 6.46614
140 2 2.40766 6.33625 5.54006
141 2 5.39285 1.35271 1.90712
142 2 4.91217 2.6487 1.1364
143 2 5.1093 2.52497 5.28626
144 2 5.50316 1.21788 6.23226
145 2 1.98315 4.71878 8.37152
146 2 1.11959 3.44389 7.61336
147 2 1.69918 4.76921 4.21833
148 2 1.99846 4.50539 2.62472
149 2 3.48642 5.21658 1.01495
150 2 2.45065 6.41678 1.21266
151 2 3.34789 1.42176 1.18483
152 2 2.05373 1.25065 1.89863
153 2 5.69104 1.21959 4.27576
154 2 6.2711 14.093 3.18854
155 2 5.7825 1.03434 8.39056
156 2 6.19888 13.9598 7.92572
157 2 7.27862 5.12302 7.57997
158 2 6.14034 6.24543 7.57089
159 2 1.71105 1.39652 6.59248
160 2 0.314282 1.45458 7.54241
161 2 8.8245 2.91283 3.36826
162 2 7.89209 1.32383 3.13592
163 2 12.5851 3.40578 1.1176
164 2 13.1493 4.60789 17.7354
165 2 13.8558 4.9284 2.23823
166 2 14.8233 4.85324 3.23219
167 2 13.0378 4.55044 4.51124
168 2 11.9087 4.59444 5.49408
169 2 10.9982 1.074 5.28961
170 2 9.62194 1.47105 4.53681
171 2 10.0042 6.30826 5.19051
172 2 9.72108 4.79237 4.70802
173 2 11.7327 1.50299 1.25313
174 2 13.1587 1.37145 1.85683
175 2 12.7483 2.57216 5.34794
176 2 13.1781 1.55494 6.25635
177 2 9.31875 4.48377 6.75833
178 2 8.77041 3.31842 7.69232
179 2 7.90178 4.56784 3.07861
180 2 9.38113 4.93318 2.43445
181 2 9.65996 4.95818 17.4833
182 2 11.0239 4.99992 0.81521
183 2 9.73263 1.10636 17.707
184 2 9.84738 1.38158 1.8661
185 2 13.4543 1.08601 3.96252
186 2 13.8007 14.0418 3.11097
187 2 13.5194 1.31718 8.54434
188 2 14.0125 14.2029 7.70132
189 2 13.5167 5.00004 6.83307
190 2 14.9718 5.00221 7.68688
191 2 7.9688 1.30838 7.61349
192 2 9.38822 1.55195 6.75544
193 2 1.64513 8.54399 4.27367
194 2 1.24148 9.77395 3.27546
195 2 4.24024 11.8312 1.2493
196 2 5.04518 10.5223 1.00591
197 2 7.28884 12.1675 3.03832
198 2 5.75306 12.0361 2.53091
199 2 5.3683 11.836 4.53106
200 2 5.58432 11.8151 6.1708
201 2 2.21147 8.38792 6.29847
202 2 3.58952 8.36501 5.40671
203 2 2.49986 13.2982 5.44278
204 2 3.38505 12.0765 5.13279
205 2 4.21531 8.49168 1.17819
206 2 5.60652 8.48685 17.7503
207 2 5.1713 9.94771 5.19986
208 2 5.74882 8.60402 4.53434
209 2 1.80292 11.811 6.62057
210 2 1.36946 10.6108 7.56932
211 2 15.3741 11.9108 3.22217
212 2 1.799 11.8439 4.13998
213 2 2.07867 12.0325 1.7942
214 2 2.63488 13.2998 1.15424
215 2 1.88414 8.37941 1.67309
216 2 2.10354 8.12679 17.7341
217 2 7.31684 8.21726 3.38808
218 2 5.76389 8.5523 2.47879
219 2 5.67548 8.39288 6.60463
220 2 7.18776 8.27351 7.53517
221 2 5.87442 11.9789 8.33558
222 2 7.18689 11.9868 7.77248
223 2 0.445058 8.40235 7.53485
224 2 1.85186 8.53351 8.47561
225 2 9.37435 8.6436 4.13867
226 2 9.35951 8.57063 2.54377
227 2 11.8093 11.9216 0.916683
228 2 12.6004 10.3382 1.16582
229 2 13.4626 12.0813 2.46405
230 2 13.6067 11.9547 4.01712
231 2 13.1153 11.9543 6.23459
232 2 11.8071 12.1345 5.42114
233 2 11.0599 8.25702 5.39229
234 2 9.6139 8.38638 6.06188
235 2 9.85411 13.3433 5.26213
236 2 9.70778 12.0483 4.58335
237 2 13.1683 8.36262 1.90466
238 2 13.229 8.51902 17.6616
239 2 13.2186 8.38511 4.66504
240 2 12.6584 9.86673 5.26854
241 2 9.26748 11.9383 8.29373
242 2 9.24632 11.8851 6.64167
243 2 8.90016 10.4695 3.30599
244 2 9.214 11.8645 2.41539
245 2 10.1969 13.541 1.09689
246 2 9.96397 12.052 17.539
247 2 11.1336 8.23521 1.00082
248 2 10.1515 6.94472 0.815621
249 2 15.0471 8.19539 3.36665
250 2 13.9235 6.93961 3.17081
251 2 13.6067 7.10756 7.34038
252 2 13.3711 8.52878 6.72958
253 2 14.9287 12.1615 7.46405
254 2 13.6765 12.0877 8.39714
255 2 8.79521 9.73822 7.39988
256 2 9.15297 8.61927 8.42794
257 2 1.73815 1.34599 11.1876
258 2 0.432949 1.36029 12.0189
259 2 5.4678 4.70393 10.654
260 2 5.5362 4.81653 8.77114
261 2 6.10805 6.38263 11.9496
262 2 5.75755 5.10528 12.6776
263 2 4.00163 4.73602 14.0725
264 2 5.15553 3.36678 14.2081
265 2 1.97446 1.31012 13.4224
266 2 1.92838 1.03404 14.7948
267 2 1.88749 5.23168 14.9328
268 2 2.7915 6.30087 14.1189
269 2 4.12633 1.43263 9.99992
270 2 5.0895 2.68999 9.74922
271 2 4.23564 1.30495 14.1396
272 2 5.49712 1.30436 15.0698
273 2 1.80595 4.66984 17.0429
274 2 1.26449 3.34287 16.4322
275 2 1.8852 4.69896 12.8006
276 2 1.42906 3.46325 12.0677
277 2 2.13209 4.93454 10.5729
278 2 3.52472 4.59019 9.72523
279 2 2.16383 1.08249 8.79461
280 2 2.32515 14.2228 9.92706
281 2 5.79056 1.38756 11.2067
282 2 5.97765 1.15594 12.8104
283 2 6.40426 14.2525 16.5571
284 2 5.93734 1.19905 17.0964
285 2 7.22625 4.72615 16.2545
286 2 5.94673 5.02282 15.474
287 2 0.309053 1.21959 16.4534
288 2 1.85192 1.34436 17.041
289 2 7.92476 1.41534 11.8568
290 2 8.96186 2.45585 11.8109
291 2 13.345 4.61302 9.0997
292 2 13.2156 4.80134 10.6182
293 2 14.8609 4.99728 12.0266
294 2 13.5911 4.9459 12.7035
295 2 13.0315 4.59289 15.0032
296 2 12.8061 3.44924 14.1414
297 2 10.2358 14.2203 14.0773
298 2 9.6204 1.26963 13.5649
299 2 10.9836 5.15178 14.013
300 2 9.75131 5.09276 13.2178
301 2 12.4825 2.67389 9.88852
302 2 11.6534 1.58974 9.69805
303 2 12.9238 1.48176 15.0015
304 2 11.7174 1.44193 14.1097
305 2 8.82829 3.223 16.2522
306 2 9.18891 4.86608 15.6054
307 2 9.34284 4.78203 11.1193
308 2 7.84138 4.73225 11.8454
309 2 9.75563 5.07625 9.00112
310 2 11.1742 4.97676 9.80631
311 2 9.70667 1.24281 10.5376
312 2 9.65969 1.29118 8.80386
313 2 13.2958 1.46454 11.0737
314 2 13.4331 0.884671 12.7374
315 2 13.5547 1.12823 17.1889
316 2 14.2776 14.1841 16.3254
317 2 13.9519 6.2399 16.183
318 2 14.8325 5.13865 16.2025
319 2 7.96265 1.73761 16.3538
320 2 9.19164 1.35953 15.5195
321 2 1.85949 8.44491 11.2491
322 2 1.28552 9.79509 11.8665
323 2 5.65962 11.8526 10.629
324 2 4.22349 12.039 9.59059
325 2 5.81577 12.0688 12.8091
326 2 6.29404 13.3336 11.9174
327 2 4.18539 11.8653 14.3309
328 2 5.16654 10.5137 14.3394
329 2 3.41979 8.30419 14.0893
330 2 2.23497 8.42011 13.2467
331 2 2.50921 13.5658 14.0888
332 2 2.2515 12.3562 14.8972
333 2 5.101 9.93762 9.64811
334 2 5.44148 8.54154 8.83363
335 2 5.42749 8.33989 13.2849
336 2 5.7441 8.5616 14.9039
337 2 0.49449 11.9116 16.1971
338 2 1.85056 11.9776 16.953
339 2 0.40875 11.8491 11.8727
340 2 1.64264 11.8379 12.9126
341 2 1.86515 12.1385 9.18184
342 2 2.03611 12.2018 10.7059
343 2 2.68043 6.96292 9.66736
344 2 3.53862 8.35469 9.76184
345 2 7.047 8.39582 11.9034
346 2 5.67214 8.24511 11.1456
347 2 6.26235 6.91092 16.4242
348 2 7.2513 8.16864 16.6724
349 2 5.94007 12.1279 17.2591
350 2 5.86528 11.919 15.6347
351 2 1.55788 8.59442 15.3745
352 2 1.21472 9.62089 16.4653
353 2 9.09726 8.47543 12.808
354 2 9.48149 8.34121 11.1765
355 2 12.7975 10.552 9.69847
356 2 11.5437 11.7533 9.90242
357 2 13.9347 13.2892 11.8748
358 2 13.5736 12.1148 11.0942
359 2 11.8368 11.9 14.3277
360 2 13.0699 11.8693 13.2643
361 2 10.9814 8.18997 14.2889
362 2 10.0183 6.93832 14.3737
363 2 9.58439 12.3174 15.0917
364 2 9.87781 12.1146 13.3203
365 2 13.1256 8.42017 8.90559
366 2 13.0853 8.47754 10.6257
367 2 13.1265 8.55911 13.369
368 2 12.5775 9.89063 14.1852
369 2 8.76556 10.6482 16.4067
370 2 7.83621 11.8202 16.4526
371 2 8.02533 11.8738 12.2354
372 2 8.82603 10.4578 12.0198
373 2 10.0385 13.4565 9.74425
374 2 9.63663 12.1367 10.6797
375 2 10.2109 7.00593 9.79169
376 2 11.078 8.14839 9.7371
377 2 14.715 8.32069 11.8911
378 2 13.88 6.81495 11.8975
379 2 14.7486 8.14862 16.2173
380 2 13.6591 8.35778 15.4432
381 2 13.5808 11.9193 17.1597
382 2 13.5229 12.1521 15.5746
383 2 9.36676 8.62386 15.5942
384 2 9.37363 8.40636 17.0705
ITEM: TIMESTEP
400
ITEM: NUMBER OF ATOMS
384
ITEM: BOX BOUNDS pp pp pp
4.6654049692420863e-01 1.5179137033075790e+01
4.3348055518130035e-01 1.4273664734818711e+01
6.2313843955395143e-01 1.7449898590446061e+01
ITEM: ATOMS id type x y z
1 1 1.40023 1.6452 3.27217
2 1 5.06314 4.46816 1.04829
3 1 6.1903 5.07389 3.22661
4 1 4.82659 4.18331 5.12305
5 1 2.59299 0.599438 5.26362
6 1 2.47002 5.17834 5.23751
7 1 4.8757 1.79296 1.14096
8 1 4.98446 1.58187 5.25374
9 1 1.16596 4.36607 7.45501
10 1 1.22663 4.3443 3.08981
11 1 2.52442 5.05603 1.06847
12 1 2.46511 0.878925 1.10313
13 1 6.13256 0.827274 3.15004
14 1 6.26914 0.844821 7.32987
15 1 6.15475 5.19579 7.18912
16 1 1.4636 1.69954 7.29575
17 1 8.52412 1.77864 3.1621
18 1 12.2838 4.14559 0.854486
19 1 13.4385 4.99722 3.00705
20 1 12.2487 4.09263 5.11673
21 1 9.8651 0.69657 5.08039
22 1 9.81007 5.05447 5.20961
23 1 12.3607 1.61357 1.04422
24 1 12.3763 1.49434 5.27715
25 1 8.59719 4.11322 7.27022
26 1 8.5771 4.37564 3.03576
27 1 9.84941 5.21028 0.86958
28 1 9.75262 0.839868 1.15675
29 1 13.6864 0.921592 3.1033
30 1 13.6353 0.795067 7.4566
31 1 13.5093 5.16685 7.19297
32 1 8.77221 1.46151 7.29495
33 1 1.25503 8.52864 3.17596
34 1 4.95191 11.0905 1.04118
35 1 6.28572 12.0412 3.03189
36 1 4.95274 11.2633 5.16135
37 1 2.48141 7.76213 5.3347
38 1 2.36291 11.8739 5.19584
39 1 4.78499 8.58695 1.01358
40 1 4.90338 8.59784 5.10862
41 1 1.20287 11.0969 7.38081
42 1 1.24726 11.2411 3.05348
43 1 2.56958 12.1521 1.06748
44 1 2.40134 7.52203 1.01815
45 1 6.27129 7.74228 3.03351
46 1 6.1705 7.76967 7.28516
47 1 6.04848 11.9493 7.34978
48 1 1.22489 8.47461 7.33613
49 1 8.63155 8.59536 3.05807
50 1 12.3202 11.1914 1.06686
51 1 13.4889 12.2182 3.14519
52 1 12.3203 11.3463 5.30954
53 1 9.97489 7.65116 5.25919
54 1 9.77174 12.0289 5.29352
55 1 12.3991 8.62724 1.11119
56 1 12.2805 8.76365 5.11634
57 1 8.52338 11.2016 7.28161
58 1 8.7093 11.2155 3.14317
59 1 9.91756 12.1135 1.10688
60 1 9.86332 7.68223 0.982991
61 1 13.5207 7.67627 3.0934
62 1 13.3824 7.85239 7.26911
63 1 13.4745 12.113 7.52341
64 1 8.51143 8.61687 7.28611
65 1 1.41826 1.61598 11.5291
66 1 4.97362 4.27002 9.396
67 1 6.24696 5.21895 11.5178
68 1 5.03931 4.38752 13.593
69 1 2.56593 0.772104 13.7463
70 1 2.45681 5.22163 13.7126
71 1 5.02983 1.62775 9.61936
72 1 4.95117 1.8941 13.8054
73 1 1.17881 4.33173 15.6903
74 1 1.34024 4.25816 11.6598
75 1 2.49415 5.21068 9.60124
76 1 2.52246 0.781934 9.48179
77 1 6.1951 0.811318 11.7946
78 1 6.17874 0.801374 15.8845
79 1 6.27524 5.1969 15.79
80 1 1.24018 1.60711 15.7476
81 1 8.54236 1.74183 11.5331
82 1 12.3971 4.34517 9.41228
83 1 13.5884 5.1164 11.6304
84 1 12.1827 4.18144 13.5897
85 1 9.76872 0.770712 13.6075
86 1 9.75438 5.09174 13.4589
87 1 12.2561 1.69759 9.51014
88 1 12.2756 1.53603 13.7089
89 1 8.6969 4.15012 15.6719
90 1 8.48445 4.26019 11.3482
91 1 9.87015 5.18281 9.28176
92 1 9.9357 0.72785 9.53971
93 1 13.6384 0.890746 11.5604
94 1 13.5446 0.563409 15.9224
95 1 13.4491 5.14397 15.5744
96 1 8.62369 1.64964 15.7208
97 1 1.21412 8.70254 11.5637
98 1 4.89719 11.2497 9.53003
99 1 6.17762 11.9688 11.6463
100 1 4.82935 11.2528 13.7002
101 1 2.34195 7.77885 13.6441
102 1 2.43966 11.9667 13.5954
103 1 4.73907 8.6385 9.43282
104 1 4.77813 8.6688 13.7121
105 1 1.32827 11.0859 15.7925
106 1 1.14723 11.3223 11.494
107 1 2.40569 12.1382 9.39345
108 1 2.37972 7.70857 9.48318
109 1 6.07922 7.91219 11.5902
110 1 6.15032 7.76798 15.7996
111 1 6.24869 11.9742 15.7639
112 1 1.28026 8.54831 15.7447
113 1 8.66591 8.63471 11.5431
114 1 12.2253 11.2816 9.4545
115 1 13.517 12.201 11.4775
116 1 12.1393 11.2235 13.5348
117 1 9.77765 7.62907 13.6767
118 1 9.78585 12.0104 13.5149
119 1 12.2076 8.57091 9.44418
120 1 12.2192 8.64684 13.5916
121 1 8.69342 11.3152 15.8385
122 1 8.47638 11.0542 11.5415
123 1 9.73855 11.9589 9.41395
124 1 9.81986 7.73758 9.44576
125 1 13.5055 7.64212 11.5281
126 1 13.4557 7.72893 15.6805
127 1 13.6234 11.8756 15.7808
128 1 8.54176 8.63764 15.7435
129 2 0.570975 1.2894 3.44912
130 2 1.27213 2.68543 3.31868
131 2 5.49275 4.5553 2.08699
132 2 5.54962 4.85966 17.0858
133 2 5.89447 4.71559 4.0527
134 2 6.21121 6.06989 3.18677
135 2 3.71676 4.61447 5.12952
136 2 5.22194 4.57607 5.90422
137 2 2.25905 0.964044 4.38786
138 2 3.52156 0.792598 5.21238
139 2 1.9342 4.83484 6.01571
140 2 2.41383 6.30814 5.27418
141 2 5.58399 1.43024 1.8926
142 2 5.04751 2.84311 1.06164
143 2 4.82557 2.51804 5.25464
144 2 5.46375 1.24203 6.14213
145 2 1.75082 4.49644 8.12828
146 2 1.19472 3.36375 7.23263
147 2 1.66595 4.62857 3.8579
148 2 1.78595 4.72783 2.28819
149 2 3.52943 4.90943 1.18635
150 2 2.58846 6.11556 0.930631
151 2 3.51968 1.38209 1.1766
152 2 2.10357 1.37637 1.9478
153 2 5.64888 1.12386 4.10885
154 2 6.18383 13.6919 3.14772
155 2 5.79229 1.24129 8.1412
156 2 5.98492 13.6511 7.24515
157 2 7.1743 4.78095 7.37442
158 2 6.14783 6.2832 7.32686
159 2 1.77 1.2239 6.47926
160 2 0.531993 1.51274 7.30887
161 2 8.4177 2.7398 3.35825
162 2 7.45627 1.38161 3.19573
163 2 12.2694 3.05725 0.756688
164 2 12.7981 4.48737 16.8333
165 2 12.7772 4.79268 2.18023
166 2 14.2956 4.63633 2.7866
167 2 12.6832 4.41223 4.29107
168 2 11.3664 4.50131 5.03036
169 2 10.8484 0.924004 5.14771
170 2 9.48332 1.24627 4.30084
171 2 9.90664 6.08873 5.36173
172 2 9.2433 4.92628 4.35712
173 2 11.2217 1.34471 1.24141
174 2 12.9124 1.50865 1.96792
175 2 12.4603 2.47723 5.40446
176 2 13.0237 1.2953 6.05512
177 2 9.07149 4.5117 6.45208
178 2 8.65378 3.25566 7.21711
179 2 7.74832 4.79065 3.05373
180 2 9.07725 4.92534 2.16562
181 2 9.65138 4.66407 16.7981
182 2 10.8345 4.9666 0.88859
183 2 9.25306 1.24642 17.308
184 2 9.34325 1.26102 1.97256
185 2 13.1258 1.05584 3.93603
186 2 13.6608 13.7794 3.25117
187 2 13.1565 1.17606 8.11625
188 2 13.4259 13.6224 7.51772
189 2 13.3167 4.73767 6.45607
190 2 14.435 4.9667 7.23676
191 2 7.86903 1.45161 7.35598
192 2 9.1736 1.27061 6.28921
193 2 1.71947 8.3149 4.1188
194 2 1.4279 9.57432 2.88119
195 2 3.79121 11.5953 1.10829
196 2 4.78064 10.0462 1.12885
197 2 7.38341 11.8152 3.01586
198 2 5.71557 11.6474 2.2101
199 2 5.49687 11.5091 4.31596
200 2 5.44317 11.6 6.05313
201 2 1.88943 8.02653 6.19024
202 2 3.3206 8.19559 5.28653
203 2 2.42217 12.8995 5.40171
204 2 3.38043 11.7045 5.1791
205 2 3.86288 8.29433 1.12381
206 2 5.2711 8.20385 17.028
207 2 4.83563 9.61317 5.14079
208 2 5.42925 8.27661 4.15839
209 2 1.80069 11.3853 6.72775
210 2 1.04098 10.1987 7.33572
211 2 15.0685 11.5407 3.42683
212 2 1.86771 11.4764 3.80207
213 2 2.13397 12.1539 1.96437
214 2 2.61871 13.2421 0.84038
215 2 1.8758 7.85119 1.7127
216 2 2.01076 7.94716 16.9426
217 2 7.31965 8.1961 3.05229
218 2 5.64549 8.029 2.06891
219 2 5.79038 7.90989 6.2685
220 2 7.20993 8.11407 7.27984
221 2 5.71712 11.807 8.22333
222 2 6.99863 11.5873 7.37299
223 2 15.0625 8.13686 7.47931
224 2 1.69344 8.08902 8.34499
225 2 8.99986 8.30831 3.99339
226 2 9.32932 8.18099 2.26729
227 2 11.2959 11.5875 0.837596
228 2 12.4798 10.2285 1.19711
229 2 12.8831 11.773 2.46172
230 2 13.2631 12.1126 3.99715
231 2 12.7964 11.8167 6.06671
232 2 11.3207 11.5438 5.38016
233 2 10.7249 8.22409 5.35298
234 2 9.37781 8.16146 6.02483
235 2 10.0247 12.9748 5.10759
236 2 9.3559 11.627 4.58299
237 2 12.9725 8.38077 1.95851
238 2 12.8313 8.32471 17.0409
239 2 12.6656 8.40935 4.33449
240 2 12.3259 9.81146 5.16686
241 2 8.93871 11.5672 7.98534
242 2 8.80458 11.6337 6.52099
243 2 8.76545 10.3919 2.92792
244 2 9.0887 11.6506 2.38046
245 2 9.84507 13.1178 1.19452
246 2 9.40559 11.8675 17.2527
247 2 10.7587 7.96839 0.958809
248 2 9.95764 6.68604 0.918406
249 2 14.4708 7.94668 3.14076
250 2 13.4808 6.70547 3.05324
251 2 13.2617 6.76377 7.21406
252 2 12.8264 8.12142 6.57098
253 2 14.3883 11.8337 7.45658
254 2 13.0522 11.5894 8.27458
255 2 8.44837 9.53554 7.28478
256 2 8.86369 8.25578 8.10272
257 2 1.82765 1.35768 10.7327
258 2 15.1148 1.31248 11.4443
259 2 5.54959 4.59367 10.1002
260 2 5.54774 4.53867 8.53565
261 2 6.15782 6.18037 11.6091
262 2 5.69538 4.99668 12.3477
263 2 4.20615 4.77523 13.8133
264 2 4.62066 3.33237 13.7165
265 2 2.11986 0.998004 12.7327
266 2 2.03072 1.34846 14.2974
267 2 2.12577 4.84185 14.569
268 2 2.46465 6.19782 13.8781
269 2 4.11568 1.37362 9.38437
270 2 4.94257 2.66737 9.60437
271 2 3.96348 1.42897 13.7078
272 2 5.58889 1.46608 14.4654
273 2 1.82812 4.39047 16.4429
274 2 1.09191 3.45011 15.5117
275 2 1.88792 4.50392 12.4575
276 2 1.42444 3.31375 11.706
277 2 2.18325 4.71067 10.3792
278 2 3.50357 5.00547 9.4714
279 2 2.16811 1.05198 8.58434
280 2 2.39999 13.7122 9.40381
281 2 5.5434 0.947375 10.9504
282 2 5.90102 1.20732 12.5616
283 2 5.9969 13.4614 15.8021
284 2 5.52256 1.24581 16.663
285 2 7.31549 4.86101 15.5688
286 2 6.00344 4.77221 14.9683
287 2 14.9289 1.2419 15.7336
288 2 1.61563 1.25352 16.4746
289 2 7.6401 1.61822 11.6606
290 2 8.78426 2.66559 11.318
291 2 13.0493 4.50074 8.52759
292 2 12.8437 4.6666 10.3242
293 2 14.4122 4.65754 11.6325
294 2 12.9268 4.61697 12.1867
295 2 12.6609 4.82516 14.2331
296 2 12.2774 3.13995 13.6059
297 2 9.48372 13.5235 13.56
298 2 9.32902 1.13694 12.64
299 2 10.6953 4.90812 13.4129
300 2 9.27026 4.79661 12.6695
301 2 12.4623 2.69764 9.81063
302 2 11.3325 1.27684 9.36089
303 2 12.7255 1.16542 14.4916
304 2 11.4039 1.22541 13.6189
305 2 8.64576 2.97316 15.6206
306 2 8.98589 4.4615 14.7832
307 2 9.00869 4.60666 10.4989
308 2 7.68927 4.5482 11.3586
309 2 9.61297 4.50868 8.57611
310 2 10.8251 4.85898 9.23216
311 2 9.54284 1.2922 10.4414
312 2 9.50114 1.15106 8.83198
313 2 13.0186 1.01307 10.7267
314 2 13.0402 1.10442 12.2926
315 2 13.0962 1.10843 16.6562
316 2 13.515 13.4675 15.9511
317 2 13.3863 6.00297 15.3592
318 2 14.5525 4.789 15.6158
319 2 7.66509 1.09728 15.8996
320 2 9.15031 1.34096 14.7425
321 2 1.65061 8.39795 10.604
322 2 1.13198 9.83485 11.5473
323 2 5.21123 11.5927 10.3631
324 2 3.85996 11.6021 9.49866
325 2 5.61386 11.5657 12.3828
326 2 6.02451 12.9455 11.5787
327 2 3.88106 11.5746 13.9246
328 2 4.71571 10.2129 13.7283