ITEM: TIMESTEP
0
ITEM: NUMBER OF ATOMS
384
ITEM: BOX BOUNDS pp pp pp
0.0000000000000000e+00 1.5645677530000000e+01
0.0000000000000000e+00 1.4707145290000000e+01
0.0000000000000000e+00 1.8073037029999998e+01
ITEM: ATOMS id type x y z
1 1 1.38 1.76 3.37
2 1 5.2 4.47 1.11
3 1 6.59 5.39 3.31
4 1 5.28 4.49 5.56
5 1 2.59 0.84 5.67
6 1 2.69 5.43 5.56
7 1 5.2 1.71 1.07
8 1 5.2 1.73 5.58
9 1 1.32 4.61 7.82
10 1 1.3 4.52 3.36
11 1 2.61 5.41 1.1
12 1 2.59 0.82 1.07
13 1 6.54 0.87 3.33
14 1 6.54 0.88 7.83
15 1 6.51 5.4 7.86
16 1 1.35 1.85 7.92
17 1 9.2 1.76 3.37
18 1 13.05 4.55 1.15
19 1 14.35 5.46 3.4
20 1 13.1 4.49 5.66
21 1 10.41 0.84 5.67
22 1 10.51 5.43 5.65
23 1 13.07 1.79 1.07
24 1 13.02 1.73 5.58
25 1 9.15 4.61 7.91
26 1 9.2 4.52 3.4
27 1 10.45 5.49 1.15
28 1 10.49 0.82 1.12
29 1 14.36 0.87 3.33
30 1 14.36 0.88 7.83
31 1 14.36 5.48 7.9
32 1 9.17 1.85 7.92
33 1 1.3 9.11 3.32
34 1 5.3 11.9 1.11
35 1 6.53 12.81 3.4
36 1 5.2 11.84 5.61
37 1 2.59 8.19 5.58
38 1 2.61 12.79 5.61
39 1 5.25 9.14 1.16
40 1 5.2 9.08 5.67
41 1 1.32 11.96 7.91
42 1 1.38 11.87 3.31
43 1 2.69 12.77 1.06
44 1 2.67 8.17 1.12
45 1 6.49 8.14 3.42
46 1 6.49 8.16 7.92
47 1 6.53 12.83 7.81
48 1 1.35 9.21 7.83
49 1 9.09 9.19 3.37
50 1 13.13 11.9 1.11
51 1 14.44 12.82 3.35
52 1 13.1 11.84 5.56
53 1 10.41 8.19 5.58
54 1 10.51 12.79 5.65
55 1 12.99 9.14 1.12
56 1 13.02 9.08 5.67
57 1 9.12 11.89 7.86
58 1 9.15 11.95 3.4
59 1 10.51 12.77 1.15
60 1 10.38 8.25 1.12
61 1 14.29 8.22 3.37
62 1 14.36 8.24 7.92
63 1 14.36 12.83 7.81
64 1 9.12 9.13 7.83
65 1 1.35 1.83 12.45
66 1 5.2 4.47 10.14
67 1 6.59 5.39 12.34
68 1 5.3 4.56 14.65
69 1 2.67 0.84 14.66
70 1 2.69 5.43 14.6
71 1 5.28 1.71 10.15
72 1 5.25 1.81 14.61
73 1 1.32 4.61 16.85
74 1 1.32 4.59 12.35
75 1 2.63 5.49 10.09
76 1 2.64 0.89 10.2
77 1 6.57 0.79 12.41
78 1 6.54 0.88 16.87
79 1 6.53 5.48 16.94
80 1 1.35 1.85 16.86
81 1 9.2 1.76 12.41
82 1 13.02 4.47 10.14
83 1 14.35 5.46 12.34
84 1 13.05 4.57 14.6
85 1 10.46 0.91 14.71
86 1 10.46 5.51 14.69
87 1 13.1 1.71 10.15
88 1 13.07 1.81 14.61
89 1 9.15 4.61 16.94
90 1 9.2 4.52 12.44
91 1 10.45 5.49 10.18
92 1 10.49 0.82 10.16
93 1 14.39 0.79 12.41
94 1 14.36 0.88 16.87
95 1 14.33 5.4 16.89
96 1 9.17 1.85 16.96
97 1 1.3 9.11 12.45
98 1 5.28 11.83 10.1
99 1 6.59 12.74 12.34
100 1 5.3 11.92 14.65
101 1 2.59 8.19 14.71
102 1 2.69 12.79 14.6
103 1 5.2 9.07 10.2
104 1 5.17 9.16 14.66
105 1 1.38 11.89 16.85
106 1 1.38 11.87 12.35
107 1 2.71 12.84 10.14
108 1 2.56 8.25 10.16
109 1 6.49 8.14 12.46
110 1 6.46 8.24 16.91
111 1 6.61 12.83 16.89
112 1 1.3 9.13 16.96
113 1 9.09 9.19 12.41
114 1 13.13 11.9 10.14
115 1 14.41 12.74 12.44
116 1 13.1 11.84 14.69
117 1 10.38 8.27 14.66
118 1 10.53 12.86 14.64
119 1 12.99 9.14 10.15
120 1 13.02 9.08 14.7
121 1 9.23 11.96 16.9
122 1 9.23 11.95 12.39
123 1 10.51 12.77 10.09
124 1 10.38 8.25 10.16
125 1 14.29 8.22 12.41
126 1 14.31 8.16 16.96
127 1 14.44 12.83 16.89
128 1 9.09 9.21 16.91
129 2 0.46 1.48 3.37
130 2 1.33 2.71 3.37
131 2 5.68 4.81 1.86
132 2 5.67 4.81 0.35
133 2 6.13 5.1 4.1
134 2 6.56 6.34 3.34
135 2 4.38 4.84 5.6
136 2 5.7 4.83 6.36
137 2 2.17 1.18 4.88
138 2 3.49 1.17 5.63
139 2 2.23 5.15 6.35
140 2 2.65 6.39 5.59
141 2 5.65 1.43 1.86
142 2 5.23 2.67 1.1
143 2 5.23 2.69 5.61
144 2 5.65 1.45 6.37
145 2 1.78 4.88 8.61
146 2 1.33 3.65 7.85
147 2 1.78 4.85 4.11
148 2 1.78 4.85 2.6
149 2 3.52 5.14 1.1
150 2 2.64 6.37 1.11
151 2 3.49 1.15 1.11
152 2 2.17 1.16 1.87
153 2 6.09 1.14 4.12
154 2 6.53 14.6171 3.37
155 2 6.09 1.15 8.63
156 2 6.53 14.6371 7.86
157 2 7.43 5.14 7.86
158 2 6.53 6.36 7.86
159 2 1.77 1.51 7.13
160 2 0.46 1.51 7.89
161 2 9.16 2.71 3.37
162 2 8.28 1.48 3.37
163 2 13.06 3.59 1.12
164 2 13.5 4.82 0.36
165 2 13.94 5.12 2.61
166 2 15.25 5.14 3.36
167 2 13.52 4.82 4.86
168 2 12.21 4.84 5.62
169 2 11.31 1.17 5.63
170 2 10 1.18 4.88
171 2 10.47 6.39 5.62
172 2 10.05 5.15 4.86
173 2 12.18 1.46 1.11
174 2 13.49 1.45 1.86
175 2 13.05 2.69 5.61
176 2 13.48 1.45 6.37
177 2 9.61 4.88 7.11
178 2 9.16 3.65 7.88
179 2 8.3 4.84 3.36
180 2 9.61 4.85 2.61
181 2 10.04 5.17 0.35
182 2 11.35 5.14 1.11
183 2 10.02 1.16 0.36
184 2 10.02 1.16 1.88
185 2 13.91 1.14 4.12
186 2 14.35 14.6171 3.37
187 2 13.91 1.15 8.63
188 2 14.36 14.6371 7.86
189 2 13.94 5.14 7.11
190 2 15.26 5.16 7.86
191 2 8.28 1.51 7.89
192 2 9.59 1.51 7.13
193 2 1.75 8.83 4.12
194 2 1.33 10.07 3.36
195 2 4.39 12.19 1.1
196 2 5.25 10.94 1.11
197 2 7.43 12.49 3.36
198 2 6.12 12.48 2.61
199 2 5.68 12.17 4.85
200 2 5.68 12.18 6.37
201 2 2.17 8.54 6.37
202 2 3.49 8.52 5.61
203 2 2.64 13.74 5.61
204 2 3.52 12.51 5.61
205 2 4.35 8.81 1.13
206 2 5.66 8.81 0.36
207 2 5.23 10.04 5.63
208 2 5.65 8.8 4.88
209 2 1.78 12.24 7.11
210 2 1.34 11.01 7.88
211 2 0.48 12.2 3.35
212 2 1.79 12.21 4.11
213 2 2.23 12.49 1.85
214 2 2.65 13.72 1.09
215 2 2.19 8.52 1.88
216 2 2.2 8.52 0.36
217 2 7.38 8.49 3.39
218 2 6.07 8.48 2.63
219 2 6.07 8.5 7.13
220 2 7.38 8.51 7.89
221 2 6.12 12.49 8.61
222 2 7.43 12.51 7.85
223 2 0.46 8.86 7.86
224 2 1.77 8.86 8.62
225 2 9.57 8.85 4.13
226 2 9.57 8.84 2.61
227 2 12.21 12.19 1.1
228 2 13.08 10.94 1.11
229 2 13.95 12.48 2.6
230 2 13.95 12.48 4.11
231 2 13.52 12.18 6.36
232 2 12.21 12.19 5.6
233 2 11.31 8.52 5.61
234 2 10 8.54 6.37
235 2 10.47 13.74 5.62
236 2 10.05 12.51 4.86
237 2 13.47 8.8 1.87
238 2 13.47 8.81 0.36
239 2 13.48 8.8 4.88
240 2 13.05 10.04 5.63
241 2 9.6 12.22 8.62
242 2 9.6 12.22 7.11
243 2 9.16 10.99 3.37
244 2 9.61 12.22 2.61
245 2 10.48 13.72 1.13
246 2 10.05 12.49 0.35
247 2 11.3 8.53 1.12
248 2 10.43 7.29 1.11
249 2 15.2 8.51 3.37
250 2 14.34 7.26 3.37
251 2 14.36 7.28 7.88
252 2 13.91 8.52 7.13
253 2 15.26 12.51 7.85
254 2 13.94 12.49 8.61
255 2 9.15 10.09 7.86
256 2 9.57 8.85 8.62
257 2 1.77 1.49 11.66
258 2 0.46 1.49 12.42
259 2 5.68 4.81 10.9
260 2 5.67 4.81 9.38
261 2 6.56 6.34 12.38
262 2 6.13 5.1 13.14
263 2 4.39 4.85 14.65
264 2 5.25 3.61 14.65
265 2 2.19 1.18 13.9
266 2 2.19 1.18 15.42
267 2 2.23 5.15 15.39
268 2 2.65 6.39 14.63
269 2 4.36 1.44 10.15
270 2 5.24 2.67 10.15
271 2 4.35 1.48 14.65
272 2 5.66 1.47 15.41
273 2 1.78 4.88 17.65
274 2 1.33 3.65 16.89
275 2 1.78 4.87 13.14
276 2 1.34 3.64 12.39
277 2 2.21 5.16 10.89
278 2 3.52 5.14 10.13
279 2 2.19 1.18 9.41
280 2 2.63 14.6471 10.16
281 2 6.09 1.13 11.65
282 2 6.09 1.14 13.17
283 2 6.53 14.6371 16.9
284 2 6.09 1.15 17.67
285 2 7.43 5.16 16.9
286 2 6.12 5.14 16.15
287 2 0.46 1.51 16.89
288 2 1.77 1.51 17.66
289 2 8.28 1.48 12.41
290 2 9.16 2.71 12.4
291 2 13.5 4.81 9.38
292 2 13.5 4.81 10.9
293 2 15.25 5.14 12.39
294 2 13.94 5.13 13.14
295 2 13.51 4.84 15.39
296 2 13.06 3.61 14.64
297 2 10.46 14.6671 14.67
298 2 10.01 1.19 13.91
299 2 11.35 5.16 14.65
300 2 10.04 5.17 13.9
301 2 13.07 2.67 10.15
302 2 12.18 1.44 10.15
303 2 13.49 1.47 15.41
304 2 12.18 1.48 14.65
305 2 9.16 3.65 16.91
306 2 9.61 4.88 16.15
307 2 9.61 4.85 11.64
308 2 8.3 4.84 12.4
309 2 10.04 5.17 9.39
310 2 11.35 5.14 10.15
311 2 10.02 1.16 10.91
312 2 10.02 1.16 9.4
313 2 13.92 1.13 11.65
314 2 13.92 1.14 13.17
315 2 13.91 1.15 17.67
316 2 14.36 14.6371 16.9
317 2 14.36 6.36 16.9
318 2 15.25 5.14 16.9
319 2 8.28 1.51 16.93
320 2 9.59 1.51 16.17
321 2 1.75 8.83 11.66
322 2 1.33 10.07 12.41
323 2 5.7 12.16 10.89
324 2 4.38 12.17 10.13
325 2 6.13 12.46 13.14
326 2 6.56 13.7 12.38
327 2 4.39 12.21 14.65
328 2 5.25 10.96 14.65
329 2 3.49 8.52 14.67
330 2 2.17 8.53 13.91
331 2 2.65 13.74 14.63
332 2 2.23 12.5 15.39
333 2 5.22 10.02 10.17
334 2 5.65 8.79 9.4
335 2 5.65 8.81 13.9
336 2 5.65 8.82 15.42
337 2 0.48 12.22 16.89
338 2 1.79 12.22 17.65
339 2 0.48 12.2 12.39
340 2 1.79 12.21 13.14
341 2 2.23 12.52 9.38
342 2 2.23 12.51 10.89
343 2 2.61 7.29 10.15
344 2 3.48 8.53 10.16
345 2 7.38 8.49 12.42
346 2 6.07 8.48 11.66
347 2 6.52 7.28 16.91
348 2 7.37 8.53 16.91
349 2 6.14 12.5 17.65
350 2 6.13 12.5 16.14
351 2 1.75 8.84 16.16
352 2 1.33 10.09 16.92
353 2 9.57 8.85 13.16
354 2 9.57 8.84 11.65
355 2 13.08 10.94 10.15
356 2 12.21 12.19 10.14
357 2 14.37 13.7 12.41
358 2 13.95 12.46 11.65
359 2 12.21 12.19 14.66
360 2 13.52 12.17 13.9
361 2 11.3 8.55 14.66
362 2 10.43 7.31 14.66
363 2 10.05 12.53 15.4
364 2 10.05 12.52 13.89
365 2 13.47 8.81 9.39
366 2 13.47 8.8 10.91
367 2 13.48 8.8 13.91
368 2 13.05 10.04 14.67
369 2 9.19 11.01 16.9
370 2 8.31 12.24 16.9
371 2 8.31 12.22 12.39
372 2 9.19 10.99 12.4
373 2 10.48 13.72 10.13
374 2 10.05 12.49 10.88
375 2 10.43 7.29 10.15
376 2 11.3 8.53 10.16
377 2 15.2 8.51 12.41
378 2 14.34 7.26 12.4
379 2 15.2 8.51 16.93
380 2 13.89 8.5 16.17
381 2 13.96 12.5 17.65
382 2 13.95 12.5 16.14
383 2 9.57 8.86 16.15
384 2 9.56 8.86 17.67
ITEM: TIMESTEP
200
ITEM: NUMBER OF ATOMS
384
ITEM: BOX BOUNDS pp pp pp
2.4136573719089505e-01 1.5404311792809107e+01
2.3499875751976607e-01 1.4472146532480238e+01
3.2049711169290340e-01 1.7752539918307097e+01
ITEM: ATOMS id type x y z
1 1 1.37319 1.71521 3.26726
2 1 5.01185 4.46412 1.01057
3 1 6.2937 5.25146 3.23858
4 1 5.01055 4.33052 5.41036
5 1 2.61952 0.676394 5.45711
6 1 2.46606 5.24854 5.45569
7 1 4.98047 1.73188 1.0214
8 1 5.12441 1.61872 5.47205
9 1 1.29763 4.41725 7.60632
10 1 1.25239 4.3728 3.25989
11 1 2.50484 5.21744 1.16586
12 1 2.523 0.822945 1.04526
13 1 6.257 0.877376 3.2644
14 1 6.32217 0.708844 7.58694
15 1 6.32572 5.25242 7.55017
16 1 1.37474 1.74843 7.5503
17 1 8.82822 1.79674 3.25733
18 1 12.6084 4.41016 1.0633
19 1 13.9467 5.26972 3.18614
20 1 12.775 4.39935 5.39727
21 1 10.0548 0.895012 5.35331
22 1 10.1722 5.24631 5.50137
23 1 12.7198 1.65569 1.05936
24 1 12.7198 1.73154 5.34534
25 1 8.87858 4.27539 7.60654
26 1 8.88649 4.47409 3.23529
27 1 10.1108 5.31534 1.00902
28 1 10.1917 0.9399 1.06864
29 1 13.943 0.765386 3.17272
30 1 14.007 0.871874 7.61976
31 1 13.975 5.23744 7.62714
32 1 8.87382 1.66112 7.54052
33 1 1.28346 8.75722 3.25306
34 1 5.09444 11.4788 1.13706
35 1 6.31286 12.3951 3.2537
36 1 4.97588 11.574 5.41086
37 1 2.49487 8.03092 5.4372
38 1 2.48532 12.3569 5.34804
39 1 5.04457 8.81634 1.13437
40 1 5.13678 8.9247 5.37772
41 1 1.31427 11.5208 7.51907
42 1 1.26773 11.4542 3.15559
43 1 2.58639 12.4086 0.977446
44 1 2.53205 7.93665 1.11198
45 1 6.3202 7.98097 3.30522
46 1 6.25939 7.94124 7.54896
47 1 6.24718 12.386 7.54829
48 1 1.30473 8.87973 7.65338
49 1 8.81967 8.80774 3.2443
50 1 12.7091 11.4363 1.0696
51 1 13.9468 12.3378 3.19623
52 1 12.6696 11.663 5.37807
53 1 10.044 7.90471 5.35729
54 1 10.1658 12.4238 5.42528
55 1 12.6641 8.77939 1.11689
56 1 12.5462 8.81661 5.30321
57 1 8.80796 11.4798 7.44104
58 1 8.81425 11.5142 3.22083
59 1 10.1441 12.4836 1.04855
60 1 10.1042 7.98225 1.18865
61 1 14.0159 7.94502 3.25204
62 1 13.8719 7.94087 7.51822
63 1 14.0707 12.4798 7.63683
64 1 8.79379 8.78508 7.57108
65 1 1.28339 1.71998 11.9939
66 1 5.07895 4.40375 9.73341
67 1 6.32418 5.35545 11.8947
68 1 5.1235 4.3738 14.03
69 1 2.56145 0.863157 14.2379
70 1 2.60402 5.27127 14.0833
71 1 5.12457 1.73402 9.84696
72 1 5.1501 1.61481 14.2316
73 1 1.28841 4.4045 16.3212
74 1 1.39715 4.4222 12.0032
75 1 2.64659 5.16726 9.67928
76 1 2.64843 0.931886 9.78351
77 1 6.33305 0.86045 11.9933
78 1 6.41895 0.828603 16.3659
79 1 6.39583 5.35091 16.2824
80 1 1.2872 1.72734 16.3364
81 1 8.85437 1.72149 12.0175
82 1 12.7427 4.418 9.84553
83 1 13.9317 5.26826 11.9238
84 1 12.7223 4.35335 14.0818
85 1 10.1248 0.922965 14.2355
86 1 10.1187 5.16606 14.0217
87 1 12.6785 1.75766 9.74381
88 1 12.6989 1.75395 14.2254
89 1 8.84117 4.36667 16.329
90 1 8.85846 4.42428 11.8741
91 1 10.1553 5.25549 9.67064
92 1 10.1511 0.904782 9.70787
93 1 13.9753 0.809514 11.8984
94 1 14.0147 0.855142 16.2752
95 1 13.8701 5.26944 16.2166
96 1 8.92566 1.81717 16.3478
97 1 1.16528 8.76291 11.9434
98 1 5.09943 11.5907 9.78298
99 1 6.35987 12.3579 11.992
100 1 5.12429 11.4617 14.1671
101 1 2.50201 7.96949 14.1407
102 1 2.59862 12.4266 14.0586
103 1 5.05378 8.8309 9.72167
104 1 5.08898 8.80035 14.2115
105 1 1.40204 11.4336 16.2044
106 1 1.29597 11.5426 12.0041
107 1 2.51239 12.4495 9.82747
108 1 2.55893 7.91354 9.78858
109 1 6.16865 7.99116 12.0331
110 1 6.28171 7.97634 16.3528
111 1 6.34709 12.3741 16.3788
112 1 1.23396 8.75858 16.3752
113 1 8.84378 8.75523 11.9983
114 1 12.6406 11.563 9.82534
115 1 13.9265 12.3599 11.9383
116 1 12.815 11.4542 14.1178
117 1 10.0155 7.88266 14.2573
118 1 10.2559 12.3898 14.1828
119 1 12.6403 8.90474 9.83848
120 1 12.6004 8.83476 14.1977
121 1 8.91746 11.6132 16.2943
122 1 8.88763 11.4142 11.9266
123 1 10.0978 12.4614 9.72844
124 1 10.1041 7.95518 9.84462
125 1 13.8175 7.96809 11.9388
126 1 13.8976 8.01443 16.3331
127 1 14.052 12.371 16.3358
128 1 8.7675 8.82442 16.3866
129 2 0.484176 1.15158 3.28787
130 2 1.15617 2.62694 3.33787
131 2 5.51738 4.81134 1.85339
132 2 5.65796 4.94616 0.339715
133 2 5.66262 4.93002 4.02676
134 2 6.22151 6.27997 3.26466
135 2 3.91971 4.64648 5.43326
136 2 5.29176 4.68164 6.25591
137 2 2.07661 1.09998 4.64273
138 2 3.43517 1.13471 5.22916
139 2 1.9358 5.08551 6.39171
140 2 2.37197 6.18936 5.50402
141 2 5.41261 1.40872 1.91255
142 2 4.8604 2.71196 1.15991
143 2 5.09026 2.60928 5.3868
144 2 5.50951 1.17726 6.20698
145 2 1.91644 4.65493 8.35883
146 2 1.2252 3.34861 7.52823
147 2 1.73688 4.80683 4.24313
148 2 1.92063 4.58438 2.59216
149 2 3.48621 5.13297 1.069
150 2 2.34986 6.40003 1.15946
151 2 3.4763 1.41518 1.06434
152 2 2.11742 1.22252 1.83675
153 2 5.74816 1.22797 4.26931
154 2 6.35704 14.1811 3.23719
155 2 5.89016 1.00413 8.45862
156 2 6.13782 13.9876 7.8255
157 2 7.28682 4.98945 7.58779
158 2 6.09167 6.21607 7.64175
159 2 1.70811 1.35478 6.56553
160 2 0.422249 1.45095 7.58771
161 2 8.73603 2.86961 3.28828
162 2 7.95955 1.23251 3.24368
163 2 12.5548 3.36736 1.06266
164 2 13.1456 4.70061 17.7258
165 2 13.7846 5.02445 2.27417
166 2 14.825 4.92584 3.30025
167 2 13.1882 4.59246 4.55677
168 2 11.8718 4.56726 5.52717
169 2 11.0144 1.08384 5.28934
170 2 9.66128 1.42215 4.63277
171 2 9.99359 6.25342 5.32382
172 2 9.66518 4.87809 4.69358
173 2 11.7733 1.52818 1.23286
174 2 13.2399 1.30283 1.81596
175 2 12.8479 2.7363 5.35214
176 2 13.2651 1.64629 6.25441
177 2 9.3678 4.60846 6.87323
178 2 8.74816 3.33553 7.62518
179 2 7.94245 4.60566 3.12763
180 2 9.42897 4.82201 2.39967
181 2 9.7155 4.97878 17.644
182 2 11.004 4.9152 0.762406
183 2 9.71419 1.2349 17.6945
184 2 9.88634 1.36272 1.89666
185 2 13.5752 1.05692 4.0175
186 2 13.8498 14.0154 3.18125
187 2 13.5231 1.3228 8.52423
188 2 14.0269 14.102 7.75623
189 2 13.5662 5.01471 6.79857
190 2 14.9797 4.92713 7.6709
191 2 7.88255 1.44118 7.50277
192 2 9.36177 1.51994 6.79983
193 2 1.67015 8.51836 4.32441
194 2 1.26659 9.76701 3.20248
195 2 4.12872 11.8623 1.18776
196 2 5.04977 10.5709 1.08327
197 2 7.27616 12.075 3.07904
198 2 5.78378 12.1273 2.44096
199 2 5.40691 11.8737 4.66935
200 2 5.51572 11.817 6.11383
201 2 2.26193 8.31875 6.22338
202 2 3.59602 8.42287 5.38091
203 2 2.49903 13.3339 5.45905
204 2 3.46331 12.1515 5.16484
205 2 4.09661 8.55066 1.05197
206 2 5.62816 8.44206 0.353835
207 2 5.10821 9.89445 5.22964
208 2 5.81771 8.49818 4.50506
209 2 1.73812 11.8184 6.61277
210 2 1.4733 10.6028 7.5768
211 2 15.3799 11.9211 3.22658
212 2 1.75345 11.81 4.1696
213 2 2.14331 12.0148 1.68731
214 2 2.57377 13.3499 1.04977
215 2 1.90427 8.30369 1.80431
216 2 2.15129 8.14763 17.7236
217 2 7.32876 8.18358 3.37059
218 2 5.91893 8.54821 2.55537
219 2 5.67224 8.31566 6.64248
220 2 7.2302 8.2377 7.65824
221 2 5.81653 11.939 8.308
222 2 7.19076 11.9063 7.75203
223 2 0.422098 8.32473 7.58026
224 2 1.85071 8.46427 8.47884
225 2 9.32604 8.68218 4.06641
226 2 9.33713 8.57517 2.49
227 2 11.8077 11.8925 0.891772
228 2 12.6584 10.377 1.02813
229 2 13.631 12.0267 2.35219
230 2 13.4894 11.9159 4.11938
231 2 13.1499 11.9699 6.17924
232 2 11.7703 12.0329 5.35074
233 2 11.0487 8.26614 5.39142
234 2 9.63209 8.43497 6.09763
235 2 9.90691 13.3605 5.32518
236 2 9.75429 12.0541 4.58329
237 2 13.1656 8.3177 1.86786
238 2 13.4294 8.40314 17.7003
239 2 13.2167 8.52381 4.57151
240 2 12.6046 9.86223 5.24156
241 2 9.30995 11.9831 8.31768
242 2 9.27554 11.8452 6.64348
243 2 8.87005 10.4482 3.28891
244 2 9.23103 11.8662 2.44993
245 2 10.0481 13.5036 1.00255
246 2 10.0682 11.9668 17.562
247 2 11.0025 8.17412 1.01335
248 2 10.0663 6.93565 0.852016
249 2 15.1116 8.23825 3.35597
250 2 13.935 7.02649 3.08905
251 2 13.6279 7.08215 7.44304
252 2 13.3625 8.3958 6.66201
253 2 14.9308 12.1298 7.53222
254 2 13.6916 12.0707 8.4232
255 2 8.88858 9.72818 7.38961
256 2 9.11256 8.6498 8.47224
257 2 1.58323 1.32838 11.0188
258 2 0.348725 1.43823 11.9749
259 2 5.50187 4.82288 10.6761
260 2 5.54049 4.86301 8.82115
261 2 6.26124 6.31351 11.9131
262 2 5.74574 5.14549 12.6952
263 2 3.99133 4.63711 14.0672
264 2 5.06615 3.24463 14.1493
265 2 2.08268 1.28732 13.4758
266 2 2.0336 1.03244 14.8985
267 2 1.99866 5.11746 14.9197
268 2 2.66722 6.31607 14.1076
269 2 4.05149 1.42033 9.95988
270 2 5.06075 2.6568 9.81072
271 2 4.20002 1.32676 14.2193
272 2 5.42222 1.26446 15.0699
273 2 1.8188 4.70156 17.0088
274 2 1.41499 3.45122 16.3827
275 2 1.92027 4.71925 12.8127
276 2 1.41585 3.38531 12.0754
277 2 2.15838 4.99806 10.6291
278 2 3.51199 4.59414 9.78356
279 2 2.24646 1.17895 8.78248
280 2 2.4578 14.2415 9.87172
281 2 5.80485 1.19999 11.1859
282 2 5.86076 1.13143 12.7866
283 2 6.38533 14.1686 16.4923
284 2 5.93133 1.20092 17.2082
285 2 7.23165 4.70666 16.3731
286 2 5.90583 5.07262 15.4745
287 2 0.253791 1.22131 16.4211
288 2 1.86703 1.28778 17.2099
289 2 7.87178 1.41434 12.0101
290 2 8.95795 2.57994 11.8147
291 2 13.3084 4.6659 8.97528
292 2 13.1782 4.82711 10.5763
293 2 14.7987 5.01192 12.0649
294 2 13.6024 4.97523 12.6891
295 2 13.06 4.55041 14.9421
296 2 12.9023 3.46111 13.9674
297 2 10.2859 14.286 13.9368
298 2 9.60337 1.1819 13.5751
299 2 10.9694 5.22936 14.0338
300 2 9.76122 4.92657 13.2456
301 2 12.5407 2.75357 9.82919
302 2 11.67 1.48011 9.75081
303 2 12.8884 1.46627 15.0413
304 2 11.7208 1.34179 14.193
305 2 8.83296 3.25538 16.3453
306 2 9.27605 4.66521 15.4842
307 2 9.2727 4.74794 11.1107
308 2 7.75721 4.76401 11.7424
309 2 9.82253 5.03567 8.83233
310 2 11.0216 4.99202 9.85401
311 2 9.64708 1.23775 10.5174
312 2 9.76469 1.22467 8.89416
313 2 13.1572 1.42114 11.0476
314 2 13.4423 0.929675 12.7236
315 2 13.5489 1.12839 17.3237
316 2 14.3167 14.2261 16.3592
317 2 13.8594 6.22996 16.1769
318 2 14.8704 5.06992 16.1255
319 2 8.09383 1.55013 16.4102
320 2 9.2253 1.43042 15.4774
321 2 1.80916 8.45664 11.2458
322 2 1.33084 9.80493 11.8654
323 2 5.7037 11.9737 10.7077
324 2 4.26206 12.0673 9.64856
325 2 5.72374 11.9817 12.6782
326 2 6.24151 13.2915 11.9206
327 2 4.23093 11.8731 14.3397
328 2 5.18275 10.5988 14.162
329 2 3.33682 8.37963 14.2272
330 2 2.18201 8.42314 13.3322
331 2 2.60701 13.6538 14.0052
332 2 2.20781 12.3309 14.9144
333 2 5.09647 9.9327 9.72623
334 2 5.40486 8.58995 8.87788
335 2 5.3723 8.31847 13.348
336 2 5.6889 8.59126 14.8658
337 2 0.437433 11.8646 16.2106
338 2 1.79276 11.8066 16.943
339 2 0.405412 11.7772 11.8472
340 2 1.6491 11.8586 13.0529
341 2 1.84499 12.082 9.29601
342 2 1.92409 12.3411 10.7186
343 2 2.67027 6.92577 9.68164
344 2 3.45887 8.29477 9.82338
345 2 7.1084 8.3762 11.9462
346 2 5.71966 8.16725 11.212
347 2 6.35035 6.96853 16.4308
348 2 7.23844 8.25828 16.6092
349 2 5.90896 12.2109 17.1958
350 2 5.85188 11.9724 15.6038
351 2 1.46485 8.56345 15.2984
352 2 1.24812 9.77374 16.5502
353 2 9.07415 8.40455 12.8182
354 2 9.41005 8.27172 11.0373
355 2 12.6953 10.5248 9.72899
356 2 11.6585 11.8437 9.85472
357 2 14.0262 13.3039 11.8639
358 2 13.4815 12.0177 11.0095
359 2 11.9644 11.9009 14.2565
360 2 13.0485 11.8595 13.1693
361 2 10.9544 8.14617 14.2133
362 2 10.0357 6.92864 14.2967
363 2 9.65045 12.2715 15.1075
364 2 9.86385 12.2561 13.236
365 2 12.9276 8.56685 9.04583
366 2 13.1648 8.50983 10.6538
367 2 13.1203 8.56232 13.3714
368 2 12.5996 9.90969 14.1199
369 2 8.87784 10.6988 16.3512
370 2 7.86217 11.839 16.3999
371 2 7.99464 11.8863 12.1905
372 2 8.86577 10.51 11.9393
373 2 10.0726 13.5396 9.77495
374 2 9.71543 12.204 10.5896
375 2 10.176 7.06644 9.77417
376 2 11.1053 8.12759 9.79366
377 2 14.8868 8.35766 11.8947
378 2 13.9182 6.95532 12.0136
379 2 14.7545 8.17469 16.1325
380 2 13.5184 8.36595 15.4664
381 2 13.6001 11.9073 17.1888
382 2 13.4949 12.1551 15.5056
383 2 9.26753 8.56327 15.4647
384 2 9.29853 8.47001 17.1182
ITEM: TIMESTEP
400
ITEM: NUMBER OF ATOMS
384
ITEM: BOX BOUNDS pp pp pp
4.6654049692420863e-01 1.5179137033075790e+01
4.3348055518130035e-01 1.4273664734818711e+01
6.2313843955395143e-01 1.7449898590446061e+01
ITEM: ATOMS id type x y z
1 1 1.41896 1.63528 3.2846
2 1 5.06964 4.45498 1.03234
3 1 6.18491 5.08291 3.23231
4 1 4.835 4.16101 5.12971
5 1 2.57311 0.595988 5.29778
6 1 2.45272 5.15749 5.26223
7 1 4.87001 1.77741 1.14361
8 1 4.99187 1.59562 5.22469
9 1 1.17931 4.35464 7.45533
10 1 1.21749 4.34939 3.0965
11 1 2.51319 5.05822 1.0721
12 1 2.46536 0.885515 1.14656
13 1 6.13092 0.856521 3.12733
14 1 6.25027 0.851441 7.32504
15 1 6.12524 5.18714 7.18406
16 1 1.44422 1.73097 7.29593
17 1 8.51933 1.80759 3.15268
18 1 12.2894 4.12391 0.849578
19 1 13.4327 4.99972 2.97551
20 1 12.2268 4.10271 5.12098
21 1 9.88037 0.708296 5.06955
22 1 9.82212 5.06507 5.20361
23 1 12.35 1.62368 1.04707
24 1 12.3721 1.51464 5.25741
25 1 8.60149 4.11112 7.26408
26 1 8.5517 4.37551 3.03703
27 1 9.84917 5.19681 0.876127
28 1 9.77556 0.855053 1.1742
29 1 13.6651 0.901102 3.09233
30 1 13.6528 0.815312 7.45104
31 1 13.5237 5.18483 7.19272
32 1 8.76585 1.46448 7.31095
33 1 1.26591 8.54894 3.17192
34 1 4.9801 11.0954 1.07131
35 1 6.26801 12.025 3.06121
36 1 4.9486 11.263 5.13976
37 1 2.48163 7.75539 5.35578
38 1 2.34755 11.9063 5.19837
39 1 4.77361 8.57355 1.01242
40 1 4.8945 8.58056 5.08526
41 1 1.22844 11.097 7.37843
42 1 1.23314 11.2423 3.07112
43 1 2.55452 12.1709 1.04835
44 1 2.41108 7.55214 1.00449
45 1 6.2863 7.74254 3.05602
46 1 6.14223 7.77061 7.27117
47 1 6.04146 11.9456 7.36653
48 1 1.20886 8.46023 7.33748
49 1 8.62384 8.60376 3.08951
50 1 12.3055 11.203 1.05964
51 1 13.4726 12.2175 3.12686
52 1 12.2905 11.3779 5.28894
53 1 9.96492 7.64941 5.24769
54 1 9.76637 12.027 5.26712
55 1 12.3985 8.63762 1.11102
56 1 12.287 8.77479 5.09579
57 1 8.51825 11.1996 7.3091
58 1 8.69523 11.2227 3.14384
59 1 9.90096 12.1031 1.1339
60 1 9.88016 7.72388 0.978756
61 1 13.5587 7.67829 3.08603
62 1 13.3921 7.84151 7.22924
63 1 13.502 12.1063 7.51513
64 1 8.51856 8.6253 7.29792
65 1 1.43199 1.60995 11.5725
66 1 4.9866 4.2626 9.39331
67 1 6.26135 5.21944 11.507
68 1 5.0289 4.42361 13.62
69 1 2.57065 0.787562 13.7087
70 1 2.46265 5.24145 13.7252
71 1 5.01983 1.61844 9.63354
72 1 4.96641 1.91156 13.7916
73 1 1.16101 4.33893 15.7004
74 1 1.34813 4.26103 11.6663
75 1 2.52564 5.1883 9.60981
76 1 2.52978 0.798245 9.48326
77 1 6.18689 0.805885 11.7537
78 1 6.20293 0.791083 15.8691
79 1 6.27468 5.16519 15.8134
80 1 1.23754 1.60234 15.7443
81 1 8.54038 1.74299 11.5159
82 1 12.4203 4.30871 9.40904
83 1 13.5835 5.11379 11.5937
84 1 12.1602 4.18026 13.5955
85 1 9.76364 0.788238 13.6274
86 1 9.77434 5.07512 13.4678
87 1 12.2126 1.6964 9.51938
88 1 12.278 1.55011 13.699
89 1 8.69198 4.1534 15.6864
90 1 8.49363 4.25877 11.3627
91 1 9.87576 5.19233 9.27759
92 1 9.91108 0.727857 9.53358
93 1 13.6466 0.903181 11.5649
94 1 13.5514 0.554893 15.8784
95 1 13.4732 5.16507 15.5781
96 1 8.6147 1.64854 15.7279
97 1 1.20495 8.73271 11.5516
98 1 4.87688 11.263 9.55245
99 1 6.18924 12.0123 11.6354
100 1 4.82876 11.2553 13.6866
101 1 2.33709 7.74919 13.6201
102 1 2.4579 11.961 13.6003
103 1 4.72543 8.64146 9.39939
104 1 4.78895 8.68353 13.6871
105 1 1.3039 11.0681 15.7857
106 1 1.13578 11.307 11.4918
107 1 2.36866 12.1118 9.40723
108 1 2.37105 7.68156 9.41813
109 1 6.08132 7.94398 11.5549
110 1 6.17111 7.74882 15.7921
111 1 6.22634 11.9947 15.7428
112 1 1.27885 8.56406 15.7479
113 1 8.6486 8.65786 11.533
114 1 12.2314 11.2582 9.4426
115 1 13.4777 12.2126 11.5133
116 1 12.1639 11.2187 13.5239
117 1 9.77563 7.60249 13.6806
118 1 9.78384 12.0312 13.5232
119 1 12.1875 8.52653 9.46911
120 1 12.2324 8.63831 13.5692
121 1 8.69006 11.3113 15.8535
122 1 8.46395 11.0683 11.5227
123 1 9.773 11.9637 9.43187
124 1 9.81714 7.77619 9.44378
125 1 13.5359 7.67528 11.5303
126 1 13.4733 7.75623 15.68
127 1 13.6057 11.8551 15.7807
128 1 8.50513 8.66316 15.7352
129 2 0.493047 1.25703 3.38679
130 2 1.21528 2.70121 3.23778
131 2 5.43 4.63044 2.00223
132 2 5.65194 4.79198 17.2434
133 2 5.76638 4.7467 4.02004
134 2 6.19119 6.09993 3.25285
135 2 3.84313 4.49495 5.07743
136 2 5.12228 4.53849 5.92342
137 2 2.16767 0.995868 4.26755
138 2 3.51782 0.94631 5.24284
139 2 1.86244 4.93436 6.04349
140 2 2.43233 6.25466 5.3361
141 2 5.60359 1.33749 1.95265
142 2 5.0363 2.85306 1.09316
143 2 4.71948 2.4928 5.18258
144 2 5.37571 1.19095 6.15376
145 2 1.70024 4.5077 8.2371
146 2 1.31282 3.4684 7.28222
147 2 1.62336 4.67687 3.90356
148 2 1.77312 4.67433 2.24939
149 2 3.52931 4.85872 1.2092
150 2 2.51526 6.2104 0.990618
151 2 3.47741 1.31266 1.10923
152 2 2.11984 1.3045 1.89752
153 2 5.6823 1.21117 4.19131
154 2 6.26906 13.6454 3.20961
155 2 5.84568 1.19613 8.11536
156 2 6.06813 13.697 7.27764
157 2 7.15143 4.77607 7.24847
158 2 6.22652 6.27537 7.35145
159 2 1.68838 1.28903 6.46026
160 2 15.1715 1.45515 7.3462
161 2 8.43351 2.87361 3.36718
162 2 7.61804 1.2986 3.18747
163 2 12.3308 3.03487 0.75685
164 2 12.8412 4.4815 16.7565
165 2 12.7764 4.68822 2.13522
166 2 14.257 4.6961 2.81794
167 2 12.7463 4.36249 4.27013
168 2 11.3561 4.54149 5.00615
169 2 10.8886 0.90135 5.07925
170 2 9.45288 1.21765 4.40454
171 2 9.86591 6.06738 5.39601
172 2 9.31899 4.85883 4.37696
173 2 11.2756 1.26194 1.24934
174 2 12.9041 1.51186 1.97921
175 2 12.386 2.4869 5.40144
176 2 12.9287 1.26468 6.0962
177 2 9.18073 4.58806 6.46775
178 2 8.66076 3.16342 7.2024
179 2 7.7966 4.75702 3.11293
180 2 9.13262 4.96218 2.18227
181 2 9.60922 4.69593 16.8063
182 2 10.7441 4.86011 0.960318
183 2 9.28438 1.38722 17.3535
184 2 9.41344 1.33887 1.96014
185 2 13.1344 1.06276 3.96213
186 2 13.6709 13.7373 3.16473
187 2 13.1505 1.26377 8.11706
188 2 13.3609 13.5511 7.59442
189 2 13.3087 4.69768 6.44671
190 2 14.3953 4.9732 7.2309
191 2 7.82818 1.43929 7.20447
192 2 9.1628 1.31492 6.25518
193 2 1.67934 8.29528 4.19605
194 2 1.50594 9.41951 2.91933
195 2 3.84385 11.5418 1.10562
196 2 4.90609 10.1125 0.940692
197 2 7.29826 11.7604 3.10457
198 2 5.72181 11.5939 2.2703
199 2 5.49821 11.6045 4.31711
200 2 5.30088 11.5549 5.91708
201 2 1.83824 8.06017 6.18219
202 2 3.3973 8.07166 5.34992
203 2 2.37663 12.8994 5.42806
204 2 3.35701 11.6268 5.24456
205 2 3.89945 8.30918 1.06945
206 2 5.26588 8.12501 16.9587
207 2 4.88188 9.62105 5.14358
208 2 5.28083 8.23823 4.17155
209 2 1.80768 11.3968 6.65394
210 2 1.1691 10.2582 7.33819
211 2 15.0007 11.5174 3.38493
212 2 1.78153 11.6328 3.79663
213 2 2.11078 12.131 1.9539
214 2 2.55049 13.1501 0.92212
215 2 1.85228 7.82649 1.73064
216 2 1.99516 7.93981 17.0322
217 2 7.36454 8.20962 3.03741
218 2 5.70313 7.94449 2.02605
219 2 5.75479 7.94622 6.32467
220 2 7.14992 8.17979 7.25243
221 2 5.76457 11.8426 8.22325
222 2 6.96597 11.6298 7.24043
223 2 14.9938 8.13757 7.46035
224 2 1.78422 8.19579 8.30951
225 2 9.03755 8.33328 3.96486
226 2 9.29497 8.26641 2.298
227 2 11.2879 11.6655 0.833653
228 2 12.4696 10.1649 1.09219
229 2 13.0084 11.8456 2.41525
230 2 13.2558 12.053 3.92736
231 2 12.8412 11.8198 5.97723
232 2 11.2436 11.552 5.3227
233 2 10.7173 8.17414 5.23082
234 2 9.40981 8.26651 5.94019
235 2 10.1246 13.0664 5.02561
236 2 9.32442 11.5437 4.61881
237 2 12.8997 8.33895 1.85233
238 2 12.7966 8.20368 17.1255
239 2 12.6572 8.41039 4.27862
240 2 12.4728 9.69785 5.1036
241 2 9.07413 11.6623 7.98865
242 2 8.93841 11.4693 6.51664
243 2 8.70653 10.3112 2.9266
244 2 9.09612 11.6604 2.34215
245 2 9.91487 13.2861 1.24315
246 2 9.31485 11.8519 17.1129
247 2 10.8487 7.96027 0.964079
248 2 9.85803 6.60172 0.858231
249 2 14.5203 8.00663 3.09971
250 2 13.5399 6.72984 3.10621
251 2 13.319 6.80923 7.18122
252 2 12.8125 8.17267 6.47622
253 2 14.3982 11.8644 7.39541
254 2 12.8704 11.684 8.32315
255 2 8.42048 9.57277 7.28089
256 2 8.80591 8.28292 8.15446
257 2 1.84593 1.32804 10.6719
258 2 15.1043 1.32113 11.477
259 2 5.50498 4.57388 10.1164
260 2 5.58215 4.50277 8.48968
261 2 6.18714 6.13214 11.5099
262 2 5.6738 5.06814 12.2751
263 2 4.21472 4.70449 13.6341
264 2 4.7112 3.42903 13.701
265 2 2.18698 0.862932 12.7716
266 2 1.98441 1.31339 14.2318
267 2 2.0384 4.9423 14.4852
268 2 2.43659 6.24117 13.7486
269 2 4.06074 1.33507 9.40165
270 2 4.9996 2.61007 9.57652
271 2 3.9682 1.32301 13.6801
272 2 5.51862 1.51033 14.521
273 2 1.81522 4.51263 16.5768
274 2 1.20989 3.39132 15.5533
275 2 1.85549 4.47931 12.4083
276 2 1.45818 3.2576 11.7191
277 2 2.13962 4.75428 10.3972
278 2 3.49338 4.97251 9.45249
279 2 2.01231 1.13253 8.59207
280 2 2.20399 13.7131 9.37236
281 2 5.60053 1.02862 10.9573
282 2 5.93411 1.10654 12.6079
283 2 5.99032 13.5041 15.8361
284 2 5.62037 1.10478 16.6018
285 2 7.24219 4.82113 15.6402
286 2 5.85186 4.69881 15.0668
287 2 14.849 1.21608 15.7731
288 2 1.70341 1.20554 16.4759
289 2 7.56915 1.53397 11.7151
290 2 8.76475 2.74582 11.3316
291 2 12.9881 4.61165 8.53518
292 2 12.8792 4.75391 10.2733
293 2 14.4515 4.71264 11.6195
294 2 12.9104 4.63228 12.3369
295 2 12.566 4.6881 14.2678
296 2 12.3736 3.07102 13.5979
297 2 9.53246 13.5402 13.5578
298 2 9.32185 1.19023 12.6177
299 2 10.6259 4.80838 13.3482
300 2 9.23628 4.78362 12.6227
301 2 12.3662 2.65632 9.76502
302 2 11.3152 1.24619 9.53166
303 2 12.724 1.14837 14.4781
304 2 11.2767 1.23916 13.4962
305 2 8.5904 2.96998 15.6424
306 2 8.98618 4.37836 14.7963
307 2 8.93139 4.73276 10.4889
308 2 7.64304 4.45697 11.4779
309 2 9.56552 4.55559 8.57553
310 2 10.873 4.92288 9.27235
311 2 9.47407 1.32429 10.3643
312 2 9.56757 1.05498 8.72431
313 2 13.0122 0.919228 10.6861
314 2 13.062 1.15699 12.3304
315 2 13.0875 1.1474 16.5585
316 2 13.4762 13.4088 15.9766
317 2 13.5092 6.00069 15.4074
318 2 14.5119 4.84208 15.6153
319 2 7.67709 1.06665 15.8179
320 2 9.18125 1.25945 14.7937
321 2 1.64823 8.49498 10.6591
322 2 1.08061 9.73466 11.5698
323 2 5.22957 11.6018 10.3686
324 2 3.9758 11.5837 9.56232
325 2 5.47487 11.6615 12.4799
326 2 6.03017 12.962 11.5913
327 2 3.85861 11.5851 13.7903
328 2 4.71458 10.1652 13.803