ITEM: TIMESTEP
0
ITEM: NUMBER OF ATOMS
384
ITEM: BOX BOUNDS pp pp pp
0.0000000000000000e+00 1.5645677530000000e+01
0.0000000000000000e+00 1.4707145290000000e+01
0.0000000000000000e+00 1.8073037029999998e+01
ITEM: ATOMS id type x y z
1 1 1.38 1.76 3.37
2 1 5.2 4.47 1.11
3 1 6.59 5.39 3.31
4 1 5.28 4.49 5.56
5 1 2.59 0.84 5.67
6 1 2.69 5.43 5.56
7 1 5.2 1.71 1.07
8 1 5.2 1.73 5.58
9 1 1.32 4.61 7.82
10 1 1.3 4.52 3.36
11 1 2.61 5.41 1.1
12 1 2.59 0.82 1.07
13 1 6.54 0.87 3.33
14 1 6.54 0.88 7.83
15 1 6.51 5.4 7.86
16 1 1.35 1.85 7.92
17 1 9.2 1.76 3.37
18 1 13.05 4.55 1.15
19 1 14.35 5.46 3.4
20 1 13.1 4.49 5.66
21 1 10.41 0.84 5.67
22 1 10.51 5.43 5.65
23 1 13.07 1.79 1.07
24 1 13.02 1.73 5.58
25 1 9.15 4.61 7.91
26 1 9.2 4.52 3.4
27 1 10.45 5.49 1.15
28 1 10.49 0.82 1.12
29 1 14.36 0.87 3.33
30 1 14.36 0.88 7.83
31 1 14.36 5.48 7.9
32 1 9.17 1.85 7.92
33 1 1.3 9.11 3.32
34 1 5.3 11.9 1.11
35 1 6.53 12.81 3.4
36 1 5.2 11.84 5.61
37 1 2.59 8.19 5.58
38 1 2.61 12.79 5.61
39 1 5.25 9.14 1.16
40 1 5.2 9.08 5.67
41 1 1.32 11.96 7.91
42 1 1.38 11.87 3.31
43 1 2.69 12.77 1.06
44 1 2.67 8.17 1.12
45 1 6.49 8.14 3.42
46 1 6.49 8.16 7.92
47 1 6.53 12.83 7.81
48 1 1.35 9.21 7.83
49 1 9.09 9.19 3.37
50 1 13.13 11.9 1.11
51 1 14.44 12.82 3.35
52 1 13.1 11.84 5.56
53 1 10.41 8.19 5.58
54 1 10.51 12.79 5.65
55 1 12.99 9.14 1.12
56 1 13.02 9.08 5.67
57 1 9.12 11.89 7.86
58 1 9.15 11.95 3.4
59 1 10.51 12.77 1.15
60 1 10.38 8.25 1.12
61 1 14.29 8.22 3.37
62 1 14.36 8.24 7.92
63 1 14.36 12.83 7.81
64 1 9.12 9.13 7.83
65 1 1.35 1.83 12.45
66 1 5.2 4.47 10.14
67 1 6.59 5.39 12.34
68 1 5.3 4.56 14.65
69 1 2.67 0.84 14.66
70 1 2.69 5.43 14.6
71 1 5.28 1.71 10.15
72 1 5.25 1.81 14.61
73 1 1.32 4.61 16.85
74 1 1.32 4.59 12.35
75 1 2.63 5.49 10.09
76 1 2.64 0.89 10.2
77 1 6.57 0.79 12.41
78 1 6.54 0.88 16.87
79 1 6.53 5.48 16.94
80 1 1.35 1.85 16.86
81 1 9.2 1.76 12.41
82 1 13.02 4.47 10.14
83 1 14.35 5.46 12.34
84 1 13.05 4.57 14.6
85 1 10.46 0.91 14.71
86 1 10.46 5.51 14.69
87 1 13.1 1.71 10.15
88 1 13.07 1.81 14.61
89 1 9.15 4.61 16.94
90 1 9.2 4.52 12.44
91 1 10.45 5.49 10.18
92 1 10.49 0.82 10.16
93 1 14.39 0.79 12.41
94 1 14.36 0.88 16.87
95 1 14.33 5.4 16.89
96 1 9.17 1.85 16.96
97 1 1.3 9.11 12.45
98 1 5.28 11.83 10.1
99 1 6.59 12.74 12.34
100 1 5.3 11.92 14.65
101 1 2.59 8.19 14.71
102 1 2.69 12.79 14.6
103 1 5.2 9.07 10.2
104 1 5.17 9.16 14.66
105 1 1.38 11.89 16.85
106 1 1.38 11.87 12.35
107 1 2.71 12.84 10.14
108 1 2.56 8.25 10.16
109 1 6.49 8.14 12.46
110 1 6.46 8.24 16.91
111 1 6.61 12.83 16.89
112 1 1.3 9.13 16.96
113 1 9.09 9.19 12.41
114 1 13.13 11.9 10.14
115 1 14.41 12.74 12.44
116 1 13.1 11.84 14.69
117 1 10.38 8.27 14.66
118 1 10.53 12.86 14.64
119 1 12.99 9.14 10.15
120 1 13.02 9.08 14.7
121 1 9.23 11.96 16.9
122 1 9.23 11.95 12.39
123 1 10.51 12.77 10.09
124 1 10.38 8.25 10.16
125 1 14.29 8.22 12.41
126 1 14.31 8.16 16.96
127 1 14.44 12.83 16.89
128 1 9.09 9.21 16.91
129 2 0.46 1.48 3.37
130 2 1.33 2.71 3.37
131 2 5.68 4.81 1.86
132 2 5.67 4.81 0.35
133 2 6.13 5.1 4.1
134 2 6.56 6.34 3.34
135 2 4.38 4.84 5.6
136 2 5.7 4.83 6.36
137 2 2.17 1.18 4.88
138 2 3.49 1.17 5.63
139 2 2.23 5.15 6.35
140 2 2.65 6.39 5.59
141 2 5.65 1.43 1.86
142 2 5.23 2.67 1.1
143 2 5.23 2.69 5.61
144 2 5.65 1.45 6.37
145 2 1.78 4.88 8.61
146 2 1.33 3.65 7.85
147 2 1.78 4.85 4.11
148 2 1.78 4.85 2.6
149 2 3.52 5.14 1.1
150 2 2.64 6.37 1.11
151 2 3.49 1.15 1.11
152 2 2.17 1.16 1.87
153 2 6.09 1.14 4.12
154 2 6.53 14.6171 3.37
155 2 6.09 1.15 8.63
156 2 6.53 14.6371 7.86
157 2 7.43 5.14 7.86
158 2 6.53 6.36 7.86
159 2 1.77 1.51 7.13
160 2 0.46 1.51 7.89
161 2 9.16 2.71 3.37
162 2 8.28 1.48 3.37
163 2 13.06 3.59 1.12
164 2 13.5 4.82 0.36
165 2 13.94 5.12 2.61
166 2 15.25 5.14 3.36
167 2 13.52 4.82 4.86
168 2 12.21 4.84 5.62
169 2 11.31 1.17 5.63
170 2 10 1.18 4.88
171 2 10.47 6.39 5.62
172 2 10.05 5.15 4.86
173 2 12.18 1.46 1.11
174 2 13.49 1.45 1.86
175 2 13.05 2.69 5.61
176 2 13.48 1.45 6.37
177 2 9.61 4.88 7.11
178 2 9.16 3.65 7.88
179 2 8.3 4.84 3.36
180 2 9.61 4.85 2.61
181 2 10.04 5.17 0.35
182 2 11.35 5.14 1.11
183 2 10.02 1.16 0.36
184 2 10.02 1.16 1.88
185 2 13.91 1.14 4.12
186 2 14.35 14.6171 3.37
187 2 13.91 1.15 8.63
188 2 14.36 14.6371 7.86
189 2 13.94 5.14 7.11
190 2 15.26 5.16 7.86
191 2 8.28 1.51 7.89
192 2 9.59 1.51 7.13
193 2 1.75 8.83 4.12
194 2 1.33 10.07 3.36
195 2 4.39 12.19 1.1
196 2 5.25 10.94 1.11
197 2 7.43 12.49 3.36
198 2 6.12 12.48 2.61
199 2 5.68 12.17 4.85
200 2 5.68 12.18 6.37
201 2 2.17 8.54 6.37
202 2 3.49 8.52 5.61
203 2 2.64 13.74 5.61
204 2 3.52 12.51 5.61
205 2 4.35 8.81 1.13
206 2 5.66 8.81 0.36
207 2 5.23 10.04 5.63
208 2 5.65 8.8 4.88
209 2 1.78 12.24 7.11
210 2 1.34 11.01 7.88
211 2 0.48 12.2 3.35
212 2 1.79 12.21 4.11
213 2 2.23 12.49 1.85
214 2 2.65 13.72 1.09
215 2 2.19 8.52 1.88
216 2 2.2 8.52 0.36
217 2 7.38 8.49 3.39
218 2 6.07 8.48 2.63
219 2 6.07 8.5 7.13
220 2 7.38 8.51 7.89
221 2 6.12 12.49 8.61
222 2 7.43 12.51 7.85
223 2 0.46 8.86 7.86
224 2 1.77 8.86 8.62
225 2 9.57 8.85 4.13
226 2 9.57 8.84 2.61
227 2 12.21 12.19 1.1
228 2 13.08 10.94 1.11
229 2 13.95 12.48 2.6
230 2 13.95 12.48 4.11
231 2 13.52 12.18 6.36
232 2 12.21 12.19 5.6
233 2 11.31 8.52 5.61
234 2 10 8.54 6.37
235 2 10.47 13.74 5.62
236 2 10.05 12.51 4.86
237 2 13.47 8.8 1.87
238 2 13.47 8.81 0.36
239 2 13.48 8.8 4.88
240 2 13.05 10.04 5.63
241 2 9.6 12.22 8.62
242 2 9.6 12.22 7.11
243 2 9.16 10.99 3.37
244 2 9.61 12.22 2.61
245 2 10.48 13.72 1.13
246 2 10.05 12.49 0.35
247 2 11.3 8.53 1.12
248 2 10.43 7.29 1.11
249 2 15.2 8.51 3.37
250 2 14.34 7.26 3.37
251 2 14.36 7.28 7.88
252 2 13.91 8.52 7.13
253 2 15.26 12.51 7.85
254 2 13.94 12.49 8.61
255 2 9.15 10.09 7.86
256 2 9.57 8.85 8.62
257 2 1.77 1.49 11.66
258 2 0.46 1.49 12.42
259 2 5.68 4.81 10.9
260 2 5.67 4.81 9.38
261 2 6.56 6.34 12.38
262 2 6.13 5.1 13.14
263 2 4.39 4.85 14.65
264 2 5.25 3.61 14.65
265 2 2.19 1.18 13.9
266 2 2.19 1.18 15.42
267 2 2.23 5.15 15.39
268 2 2.65 6.39 14.63
269 2 4.36 1.44 10.15
270 2 5.24 2.67 10.15
271 2 4.35 1.48 14.65
272 2 5.66 1.47 15.41
273 2 1.78 4.88 17.65
274 2 1.33 3.65 16.89
275 2 1.78 4.87 13.14
276 2 1.34 3.64 12.39
277 2 2.21 5.16 10.89
278 2 3.52 5.14 10.13
279 2 2.19 1.18 9.41
280 2 2.63 14.6471 10.16
281 2 6.09 1.13 11.65
282 2 6.09 1.14 13.17
283 2 6.53 14.6371 16.9
284 2 6.09 1.15 17.67
285 2 7.43 5.16 16.9
286 2 6.12 5.14 16.15
287 2 0.46 1.51 16.89
288 2 1.77 1.51 17.66
289 2 8.28 1.48 12.41
290 2 9.16 2.71 12.4
291 2 13.5 4.81 9.38
292 2 13.5 4.81 10.9
293 2 15.25 5.14 12.39
294 2 13.94 5.13 13.14
295 2 13.51 4.84 15.39
296 2 13.06 3.61 14.64
297 2 10.46 14.6671 14.67
298 2 10.01 1.19 13.91
299 2 11.35 5.16 14.65
300 2 10.04 5.17 13.9
301 2 13.07 2.67 10.15
302 2 12.18 1.44 10.15
303 2 13.49 1.47 15.41
304 2 12.18 1.48 14.65
305 2 9.16 3.65 16.91
306 2 9.61 4.88 16.15
307 2 9.61 4.85 11.64
308 2 8.3 4.84 12.4
309 2 10.04 5.17 9.39
310 2 11.35 5.14 10.15
311 2 10.02 1.16 10.91
312 2 10.02 1.16 9.4
313 2 13.92 1.13 11.65
314 2 13.92 1.14 13.17
315 2 13.91 1.15 17.67
316 2 14.36 14.6371 16.9
317 2 14.36 6.36 16.9
318 2 15.25 5.14 16.9
319 2 8.28 1.51 16.93
320 2 9.59 1.51 16.17
321 2 1.75 8.83 11.66
322 2 1.33 10.07 12.41
323 2 5.7 12.16 10.89
324 2 4.38 12.17 10.13
325 2 6.13 12.46 13.14
326 2 6.56 13.7 12.38
327 2 4.39 12.21 14.65
328 2 5.25 10.96 14.65
329 2 3.49 8.52 14.67
330 2 2.17 8.53 13.91
331 2 2.65 13.74 14.63
332 2 2.23 12.5 15.39
333 2 5.22 10.02 10.17
334 2 5.65 8.79 9.4
335 2 5.65 8.81 13.9
336 2 5.65 8.82 15.42
337 2 0.48 12.22 16.89
338 2 1.79 12.22 17.65
339 2 0.48 12.2 12.39
340 2 1.79 12.21 13.14
341 2 2.23 12.52 9.38
342 2 2.23 12.51 10.89
343 2 2.61 7.29 10.15
344 2 3.48 8.53 10.16
345 2 7.38 8.49 12.42
346 2 6.07 8.48 11.66
347 2 6.52 7.28 16.91
348 2 7.37 8.53 16.91
349 2 6.14 12.5 17.65
350 2 6.13 12.5 16.14
351 2 1.75 8.84 16.16
352 2 1.33 10.09 16.92
353 2 9.57 8.85 13.16
354 2 9.57 8.84 11.65
355 2 13.08 10.94 10.15
356 2 12.21 12.19 10.14
357 2 14.37 13.7 12.41
358 2 13.95 12.46 11.65
359 2 12.21 12.19 14.66
360 2 13.52 12.17 13.9
361 2 11.3 8.55 14.66
362 2 10.43 7.31 14.66
363 2 10.05 12.53 15.4
364 2 10.05 12.52 13.89
365 2 13.47 8.81 9.39
366 2 13.47 8.8 10.91
367 2 13.48 8.8 13.91
368 2 13.05 10.04 14.67
369 2 9.19 11.01 16.9
370 2 8.31 12.24 16.9
371 2 8.31 12.22 12.39
372 2 9.19 10.99 12.4
373 2 10.48 13.72 10.13
374 2 10.05 12.49 10.88
375 2 10.43 7.29 10.15
376 2 11.3 8.53 10.16
377 2 15.2 8.51 12.41
378 2 14.34 7.26 12.4
379 2 15.2 8.51 16.93
380 2 13.89 8.5 16.17
381 2 13.96 12.5 17.65
382 2 13.95 12.5 16.14
383 2 9.57 8.86 16.15
384 2 9.56 8.86 17.67
ITEM: TIMESTEP
200
ITEM: NUMBER OF ATOMS
384
ITEM: BOX BOUNDS pp pp pp
2.4136573719089505e-01 1.5404311792809107e+01
2.3499875751976607e-01 1.4472146532480238e+01
3.2049711169290340e-01 1.7752539918307097e+01
ITEM: ATOMS id type x y z
1 1 1.36029 1.70594 3.28924
2 1 5.00975 4.46521 1.01833
3 1 6.30624 5.25481 3.26376
4 1 5.01178 4.34538 5.40745
5 1 2.56814 0.672215 5.43851
6 1 2.46334 5.24585 5.47798
7 1 5.01127 1.72715 1.01536
8 1 5.11524 1.6454 5.48303
9 1 1.26747 4.42366 7.62888
10 1 1.24254 4.34733 3.26334
11 1 2.49718 5.19217 1.15803
12 1 2.53455 0.827624 1.05076
13 1 6.25492 0.860229 3.27309
14 1 6.29761 0.695824 7.6148
15 1 6.33511 5.23206 7.58317
16 1 1.37119 1.74916 7.56491
17 1 8.81878 1.80609 3.27526
18 1 12.6302 4.39078 1.05117
19 1 13.9285 5.26552 3.17435
20 1 12.7731 4.38315 5.42573
21 1 10.0786 0.915906 5.35945
22 1 10.1863 5.24489 5.45168
23 1 12.7278 1.68114 1.05047
24 1 12.7313 1.74357 5.33941
25 1 8.86996 4.28838 7.61558
26 1 8.87911 4.4764 3.24094
27 1 10.1123 5.34209 1.01335
28 1 10.1925 0.953661 1.08658
29 1 13.9507 0.776729 3.15402
30 1 13.9686 0.874658 7.62264
31 1 13.9678 5.23248 7.60294
32 1 8.87127 1.6866 7.53469
33 1 1.25571 8.77531 3.28283
34 1 5.10774 11.5094 1.14348
35 1 6.31794 12.4033 3.22941
36 1 4.99193 11.5328 5.40511
37 1 2.49937 8.04985 5.44475
38 1 2.4974 12.3447 5.35535
39 1 5.02567 8.82404 1.13551
40 1 5.14399 8.88963 5.37779
41 1 1.29966 11.5405 7.51191
42 1 1.2862 11.4464 3.18371
43 1 2.59522 12.415 0.985414
44 1 2.53351 7.93802 1.09585
45 1 6.31798 7.99962 3.31237
46 1 6.26679 7.94283 7.57761
47 1 6.24818 12.39 7.564
48 1 1.29771 8.91608 7.62925
49 1 8.82967 8.81847 3.23645
50 1 12.7201 11.4341 1.04081
51 1 13.9429 12.3374 3.21162
52 1 12.6943 11.6484 5.3974
53 1 10.087 7.89261 5.35569
54 1 10.1463 12.4143 5.41629
55 1 12.6594 8.77254 1.1079
56 1 12.5583 8.80332 5.3212
57 1 8.80863 11.4566 7.44221
58 1 8.82568 11.5122 3.2038
59 1 10.1274 12.459 1.06932
60 1 10.0855 7.96279 1.18988
61 1 14.01 7.96237 3.27638
62 1 13.8707 7.92369 7.53556
63 1 14.013 12.4891 7.62533
64 1 8.82219 8.80448 7.56063
65 1 1.26379 1.71504 11.9953
66 1 5.05061 4.40462 9.74083
67 1 6.33246 5.36959 11.8963
68 1 5.10586 4.36005 14.0333
69 1 2.54123 0.862173 14.2264
70 1 2.59648 5.26718 14.082
71 1 5.14234 1.7394 9.85177
72 1 5.14488 1.61536 14.2598
73 1 1.25468 4.40046 16.3164
74 1 1.42103 4.42508 12.0356
75 1 2.64648 5.2024 9.67145
76 1 2.63435 0.903038 9.7973
77 1 6.33884 0.867386 12.0017
78 1 6.43637 0.839921 16.3854
79 1 6.39805 5.33382 16.2951
80 1 1.31004 1.75837 16.3489
81 1 8.85235 1.74649 12.037
82 1 12.7331 4.42791 9.81216
83 1 13.9565 5.29956 11.9319
84 1 12.7187 4.35303 14.0627
85 1 10.1109 0.900149 14.246
86 1 10.1087 5.16948 14.02
87 1 12.6704 1.78821 9.74879
88 1 12.7055 1.75233 14.2188
89 1 8.79805 4.34504 16.3082
90 1 8.85324 4.42196 11.8472
91 1 10.1617 5.26769 9.67675
92 1 10.145 0.89004 9.7061
93 1 13.987 0.82292 11.8843
94 1 14.0225 0.825347 16.2951
95 1 13.8604 5.25096 16.2485
96 1 8.91964 1.82381 16.3272
97 1 1.16685 8.75618 11.9522
98 1 5.11605 11.593 9.79118
99 1 6.34314 12.3368 12.0028
100 1 5.12978 11.4897 14.1923
101 1 2.49949 7.98675 14.176
102 1 2.57033 12.4487 14.072
103 1 5.05205 8.82868 9.73643
104 1 5.08293 8.82212 14.1873
105 1 1.37723 11.4468 16.2034
106 1 1.29217 11.552 12.0489
107 1 2.53984 12.456 9.83836
108 1 2.56203 7.92386 9.78598
109 1 6.16344 7.97801 12.0063
110 1 6.27393 7.98824 16.3706
111 1 6.32144 12.3578 16.3687
112 1 1.21238 8.77272 16.3851
113 1 8.82004 8.73703 11.9902
114 1 12.6325 11.551 9.80493
115 1 13.9408 12.3626 11.936
116 1 12.7757 11.5053 14.1601
117 1 10.0023 7.88172 14.2477
118 1 10.269 12.3806 14.1693
119 1 12.6354 8.90538 9.84528
120 1 12.6265 8.80626 14.1858
121 1 8.92821 11.6025 16.299
122 1 8.89712 11.4232 11.913
123 1 10.0924 12.462 9.72644
124 1 10.113 7.95603 9.82608
125 1 13.7965 7.95631 11.938
126 1 13.9206 7.97769 16.3392
127 1 14.0593 12.3767 16.3011
128 1 8.80051 8.83628 16.3252
129 2 0.422422 1.10207 3.23593
130 2 1.03576 2.68437 3.33455
131 2 5.42976 4.69359 1.77881
132 2 5.54049 4.95005 17.6876
133 2 5.705 5.01323 4.0294
134 2 6.11097 6.14897 3.27234
135 2 3.95356 4.6882 5.47515
136 2 5.33507 4.68707 6.33263
137 2 2.01075 1.03217 4.68669
138 2 3.38568 1.12813 5.20919
139 2 2.01336 5.03194 6.34769
140 2 2.39094 6.15276 5.48304
141 2 5.43822 1.45666 1.92574
142 2 4.7651 2.70684 1.19577
143 2 5.06219 2.60956 5.39765
144 2 5.41462 1.20461 6.19561
145 2 1.92091 4.62868 8.4199
146 2 1.2767 3.43075 7.57517
147 2 1.63027 4.8602 4.11038
148 2 1.80715 4.65154 2.57608
149 2 3.46546 5.08209 1.04238
150 2 2.3904 6.34206 1.22656
151 2 3.36216 1.36073 1.11928
152 2 2.09572 1.20512 1.83834
153 2 5.75361 1.19093 4.27845
154 2 6.37174 14.1647 3.25386
155 2 5.89968 1.00036 8.44203
156 2 6.21354 13.9254 7.80317
157 2 7.18616 4.88504 7.55182
158 2 6.1983 6.15196 7.45202
159 2 1.63783 1.4005 6.64271
160 2 0.434254 1.46295 7.61334
161 2 8.79929 2.85201 3.216
162 2 8.00536 1.27081 3.33378
163 2 12.6442 3.41179 1.17861
164 2 13.2824 4.68408 17.6709
165 2 13.7628 4.978 2.22157
166 2 14.8573 4.97456 3.33404
167 2 13.1354 4.73037 4.58347
168 2 11.7906 4.58071 5.44005
169 2 11.0594 1.01175 5.22932
170 2 9.694 1.39547 4.59304
171 2 10.0429 6.29639 5.33076
172 2 9.62065 4.86525 4.77946
173 2 11.7192 1.52732 1.19686
174 2 13.266 1.34629 1.84491
175 2 12.8497 2.7343 5.38566
176 2 13.1702 1.58439 6.2536
177 2 9.39076 4.55811 6.89675
178 2 8.70085 3.3234 7.65292
179 2 7.91205 4.6757 3.26739
180 2 9.39833 4.77559 2.36756
181 2 9.81009 4.97123 17.5714
182 2 11.0247 4.83335 0.802577
183 2 9.77765 1.23605 17.6925
184 2 9.87889 1.35201 1.87265
185 2 13.6004 0.93758 4.06326
186 2 13.8141 13.9859 3.18782
187 2 13.5862 1.26649 8.42151
188 2 13.9711 13.9349 7.7236
189 2 13.6152 5.02802 6.78476
190 2 14.9836 5.01235 7.74524
191 2 7.89174 1.31358 7.48404
192 2 9.41705 1.50624 6.75096
193 2 1.73035 8.57249 4.28284
194 2 1.33469 9.6644 3.22099
195 2 4.1626 11.9169 1.23053
196 2 4.89602 10.5014 1.06743
197 2 7.27981 12.0623 3.07172
198 2 5.75488 12.1842 2.33295
199 2 5.49297 12.0078 4.51385
200 2 5.63918 11.8324 6.05653
201 2 2.26039 8.40816 6.21411
202 2 3.52377 8.46902 5.42166
203 2 2.49228 13.3246 5.50783
204 2 3.43769 12.1023 5.24705
205 2 4.02379 8.57069 1.10834
206 2 5.50704 8.40366 0.394423
207 2 5.06599 9.89876 5.27862
208 2 5.73729 8.42638 4.50231
209 2 1.72247 11.8528 6.58732
210 2 1.38785 10.6027 7.56272
211 2 0.283162 11.9881 3.12498
212 2 1.80103 11.7503 3.93171
213 2 2.08503 12.0111 1.77626
214 2 2.59626 13.3686 1.04329
215 2 2.02848 8.35226 1.89555
216 2 2.06578 8.11032 17.7437
217 2 7.34957 8.19649 3.40483
218 2 5.94002 8.58178 2.46472
219 2 5.73097 8.24013 6.6651
220 2 7.27048 8.31025 7.60831
221 2 5.75842 11.9982 8.29983
222 2 7.2137 11.9352 7.61796
223 2 0.388099 8.35084 7.55698
224 2 1.79973 8.46097 8.48907
225 2 9.3011 8.68755 3.94434
226 2 9.37641 8.59912 2.40292
227 2 11.8163 11.9238 0.865891
228 2 12.6961 10.3674 0.948336
229 2 13.6063 12.0725 2.38972
230 2 13.433 11.9253 4.00475
231 2 13.1748 11.8931 6.23568
232 2 11.8434 11.9318 5.36523
233 2 11.0817 8.20837 5.33681
234 2 9.60452 8.42586 6.13197
235 2 9.96774 13.3569 5.18461
236 2 9.71436 12.0644 4.472
237 2 13.2544 8.33784 1.9385
238 2 13.3451 8.43736 0.410393
239 2 13.2445 8.55696 4.51743
240 2 12.5711 9.85283 5.25416
241 2 9.28488 12.1069 8.41083
242 2 9.3935 11.7888 6.64116
243 2 8.86008 10.4368 3.29795
244 2 9.34447 11.8392 2.4568
245 2 9.98766 13.4723 0.98082
246 2 10.0402 12.0319 17.527
247 2 11.0422 8.06493 1.02928
248 2 10.0702 6.9678 0.907028
249 2 15.0004 8.32631 3.28307
250 2 14.0765 7.02485 2.99456
251 2 13.7358 7.08263 7.50874
252 2 13.3988 8.39392 6.7441
253 2 14.9904 12.2365 7.53142
254 2 13.5736 12.1104 8.39881
255 2 8.99584 9.77445 7.39383
256 2 9.14938 8.56847 8.45904
257 2 1.72163 1.42288 11.0119
258 2 0.344145 1.33519 12.0847
259 2 5.57156 4.77911 10.5954
260 2 5.60648 4.75205 8.92862
261 2 6.21938 6.34435 11.9542
262 2 5.83489 5.19227 12.6813
263 2 3.9734 4.62071 14.1252
264 2 5.07129 3.33213 14.0852
265 2 2.05681 1.3089 13.5629
266 2 1.97821 1.10024 14.9837
267 2 1.97135 5.10704 14.9556
268 2 2.76226 6.31764 14.1426
269 2 4.03688 1.31987 10.0183
270 2 5.12158 2.66329 9.66698
271 2 4.16088 1.34013 14.2831
272 2 5.51525 1.28363 15.1593
273 2 1.88693 4.54322 16.9667
274 2 1.46017 3.46276 16.3954
275 2 2.01118 4.86283 12.721
276 2 1.36348 3.36233 11.9635
277 2 2.16527 4.98655 10.5678
278 2 3.54114 4.61931 9.72178
279 2 2.32311 1.20846 8.76606
280 2 2.35065 14.2371 9.91633
281 2 5.77226 1.22123 11.2484
282 2 5.79902 1.1441 12.6923
283 2 6.33376 14.1094 16.5264
284 2 5.86654 1.13423 17.1468
285 2 7.32745 4.74439 16.3879
286 2 5.84489 5.16093 15.4576
287 2 0.267453 1.27887 16.4727
288 2 1.85365 1.39152 17.1105
289 2 7.93527 1.47747 12.0297
290 2 8.93974 2.68188 11.8573
291 2 13.3284 4.6789 9.09187
292 2 13.0823 4.89823 10.6716
293 2 14.8455 4.94134 12.0843
294 2 13.5495 4.86973 12.6475
295 2 13.0501 4.5701 14.98
296 2 12.7731 3.35754 14.0227
297 2 10.2112 14.2075 13.9842
298 2 9.64592 1.15451 13.4869
299 2 10.98 5.16904 14.1449
300 2 9.72378 4.89141 13.1566
301 2 12.6173 2.75037 9.83657
302 2 11.7882 1.49665 9.83491
303 2 12.8862 1.42143 15.0599
304 2 11.7495 1.40181 14.2169
305 2 8.84903 3.18592 16.277
306 2 9.36745 4.56099 15.5331
307 2 9.29665 4.75996 10.9657
308 2 7.83398 4.73462 11.7584
309 2 9.75716 4.90113 8.78626
310 2 11.0488 4.95129 9.8413
311 2 9.61086 1.22086 10.4882
312 2 9.83271 1.11728 8.97077
313 2 13.1839 1.34647 11.1159
314 2 13.415 0.955661 12.7295
315 2 13.5378 1.07073 17.3184
316 2 14.1994 14.17 16.2353
317 2 13.8821 6.21654 16.2733
318 2 14.8791 5.16243 16.158
319 2 8.09006 1.55881 16.3661
320 2 9.2676 1.53928 15.4961
321 2 1.94012 8.45561 11.233
322 2 1.23797 9.7494 11.9551
323 2 5.63464 11.8414 10.6881
324 2 4.28862 12.0519 9.66359
325 2 5.58769 11.8997 12.7046
326 2 6.3345 13.2617 11.9156
327 2 4.14515 11.8426 14.2422
328 2 5.26053 10.5708 14.1112
329 2 3.26259 8.36141 14.2017
330 2 2.18025 8.32893 13.4055
331 2 2.54764 13.677 13.9645
332 2 2.14081 12.2878 14.9785
333 2 5.07798 9.96563 9.73103
334 2 5.30413 8.58757 8.83736
335 2 5.37927 8.41057 13.2651
336 2 5.74531 8.6274 14.8404
337 2 0.460351 11.7587 16.2105
338 2 1.72541 11.7667 16.9507
339 2 0.413012 11.721 11.8572
340 2 1.77532 11.8208 13.0291
341 2 1.86739 11.9995 9.14113
342 2 1.93524 12.3515 10.7391
343 2 2.77947 6.91536 9.74335
344 2 3.37123 8.353 9.71231
345 2 7.08439 8.34189 11.9393
346 2 5.77804 8.17962 11.2045
347 2 6.33275 6.95965 16.4129
348 2 7.21099 8.21006 16.5299
349 2 5.83827 12.1349 17.2349
350 2 5.83059 12.0108 15.6615
351 2 1.56585 8.58444 15.4529
352 2 1.20402 9.80556 16.4393
353 2 9.13159 8.33462 12.7919
354 2 9.42934 8.17448 11.0829
355 2 12.6575 10.4261 9.70928
356 2 11.7197 11.8348 9.87993
357 2 13.96 13.308 11.9289
358 2 13.4821 12.0906 10.9632
359 2 12.0251 11.8109 14.1916
360 2 12.9455 11.8075 13.1687
361 2 10.9303 8.2446 14.2278
362 2 9.99229 7.06306 14.298
363 2 9.71896 12.2908 15.0855
364 2 9.85217 12.1718 13.2758
365 2 12.8538 8.46115 8.96381
366 2 13.163 8.50305 10.6151
367 2 13.1286 8.52719 13.397
368 2 12.5996 9.9764 14.147
369 2 8.86828 10.5917 16.4424
370 2 7.83143 11.7931 16.3668
371 2 8.1948 11.8843 12.2115
372 2 8.93607 10.4925 11.9998
373 2 10.1197 13.4971 9.77637
374 2 9.73162 12.2915 10.5929
375 2 10.1119 7.16301 9.67493
376 2 11.0981 8.12064 9.6927
377 2 14.8011 8.31005 11.8728
378 2 13.917 6.9712 11.9582
379 2 14.8124 8.27642 16.1574
380 2 13.604 8.34765 15.4187
381 2 13.5496 11.8477 17.188
382 2 13.5702 12.1676 15.5788
383 2 9.36221 8.53789 15.5074
384 2 9.25185 8.50186 17.1075
ITEM: TIMESTEP
400
ITEM: NUMBER OF ATOMS
384
ITEM: BOX BOUNDS pp pp pp
4.6654049692420863e-01 1.5179137033075790e+01
4.3348055518130035e-01 1.4273664734818711e+01
6.2313843955395143e-01 1.7449898590446061e+01
ITEM: ATOMS id type x y z
1 1 1.39147 1.64601 3.29369
2 1 5.09369 4.45935 1.03335
3 1 6.14662 5.09617 3.26126
4 1 4.84254 4.16884 5.10981
5 1 2.56684 0.59073 5.31361
6 1 2.43348 5.12593 5.27095
7 1 4.84518 1.79649 1.15314
8 1 4.98918 1.60065 5.2209
9 1 1.17892 4.32685 7.4445
10 1 1.22114 4.35339 3.07922
11 1 2.51632 5.0722 1.04249
12 1 2.48235 0.903004 1.11719
13 1 6.12285 0.848552 3.12035
14 1 6.27294 0.825736 7.35143
15 1 6.1227 5.16548 7.20794
16 1 1.45352 1.73922 7.30214
17 1 8.52495 1.8215 3.16469
18 1 12.2897 4.16304 0.811354
19 1 13.4247 4.99651 2.96615
20 1 12.2547 4.1046 5.13194
21 1 9.87736 0.720786 5.08078
22 1 9.85154 5.07486 5.22236
23 1 12.3009 1.61375 1.05491
24 1 12.3868 1.54191 5.25742
25 1 8.63517 4.13061 7.25798
26 1 8.5515 4.37365 3.04981
27 1 9.83902 5.18081 0.867412
28 1 9.75581 0.862328 1.19178
29 1 13.6498 0.896275 3.11141
30 1 13.637 0.850044 7.48499
31 1 13.5135 5.18031 7.20236
32 1 8.77631 1.4687 7.30469
33 1 1.23032 8.56491 3.17759
34 1 4.95388 11.1066 1.09355
35 1 6.27333 12.0163 3.03133
36 1 4.94985 11.2734 5.12219
37 1 2.49759 7.76891 5.35978
38 1 2.37479 11.8906 5.17058
39 1 4.79147 8.59088 1.05291
40 1 4.87941 8.57279 5.09978
41 1 1.2234 11.1336 7.37772
42 1 1.24977 11.2231 3.08558
43 1 2.57067 12.1792 1.0384
44 1 2.40328 7.58459 1.01658
45 1 6.32533 7.73239 3.04167
46 1 6.1153 7.7606 7.26411
47 1 6.07634 11.9531 7.33256
48 1 1.21115 8.48367 7.34367
49 1 8.60652 8.61069 3.08611
50 1 12.32 11.1852 1.07726
51 1 13.4822 12.2226 3.12659
52 1 12.3083 11.3802 5.29915
53 1 9.95127 7.66392 5.26708
54 1 9.77456 12.0206 5.27129
55 1 12.3718 8.63432 1.08453
56 1 12.2953 8.75381 5.13097
57 1 8.49588 11.1929 7.33626
58 1 8.72285 11.2053 3.12472
59 1 9.90235 12.1292 1.1036
60 1 9.86353 7.68876 0.964075
61 1 13.5607 7.64424 3.09332
62 1 13.3688 7.85437 7.2278
63 1 13.479 12.1084 7.52775
64 1 8.53614 8.59964 7.30509
65 1 1.42329 1.62622 11.5766
66 1 4.98283 4.24579 9.40364
67 1 6.26583 5.20854 11.5109
68 1 5.0331 4.42017 13.6325
69 1 2.57453 0.80184 13.7226
70 1 2.47536 5.23267 13.7018
71 1 5.02439 1.61512 9.6613
72 1 4.94881 1.89735 13.777
73 1 1.15986 4.32846 15.6849
74 1 1.33076 4.24019 11.6496
75 1 2.52326 5.1783 9.60168
76 1 2.56759 0.79675 9.48091
77 1 6.19745 0.784392 11.7478
78 1 6.1841 0.794872 15.8618
79 1 6.27718 5.17298 15.8109
80 1 1.23771 1.62221 15.7329
81 1 8.54323 1.73961 11.5137
82 1 12.4397 4.30011 9.41394
83 1 13.593 5.11112 11.584
84 1 12.142 4.17272 13.6116
85 1 9.76621 0.81998 13.6008
86 1 9.79907 5.07641 13.4493
87 1 12.2151 1.6819 9.52399
88 1 12.2725 1.51584 13.6887
89 1 8.70954 4.13372 15.6934
90 1 8.5297 4.25097 11.3701
91 1 9.87777 5.16399 9.2849
92 1 9.92121 0.702863 9.52644
93 1 13.6511 0.912242 11.5621
94 1 13.5621 0.558451 15.8999
95 1 13.4687 5.15496 15.576
96 1 8.61583 1.63849 15.7114
97 1 1.25135 8.75152 11.5488
98 1 4.88434 11.2625 9.53458
99 1 6.18354 12.0256 11.566
100 1 4.86259 11.235 13.7344
101 1 2.35639 7.74832 13.6372
102 1 2.44439 11.9836 13.5994
103 1 4.72381 8.65936 9.42044
104 1 4.77321 8.68939 13.6925
105 1 1.30006 11.0628 15.7863
106 1 1.16818 11.2947 11.4811
107 1 2.41262 12.1085 9.39832
108 1 2.35602 7.68756 9.44939
109 1 6.09375 7.93142 11.5466
110 1 6.18542 7.77503 15.7826
111 1 6.22163 11.9786 15.746
112 1 1.26157 8.57284 15.7288
113 1 8.66055 8.67115 11.4971
114 1 12.2423 11.2399 9.44424
115 1 13.4512 12.1672 11.5259
116 1 12.1308 11.2317 13.5565
117 1 9.78452 7.61096 13.7075
118 1 9.77624 12.0693 13.5364
119 1 12.1996 8.53364 9.4549
120 1 12.2093 8.65876 13.5666
121 1 8.6993 11.3116 15.8549
122 1 8.48028 11.0898 11.5327
123 1 9.77281 11.9685 9.45454
124 1 9.81121 7.75135 9.4422
125 1 13.5401 7.68563 11.5296
126 1 13.5011 7.74439 15.7073
127 1 13.6053 11.8477 15.7901
128 1 8.4869 8.66951 15.7274
129 2 0.588315 1.24945 3.38759
130 2 1.36002 2.72826 3.15402
131 2 5.35944 4.71495 2.04271
132 2 5.66788 4.7474 17.1277
133 2 5.65643 4.77186 4.05106
134 2 6.18824 6.09585 3.23089
135 2 3.77227 4.49918 5.04213
136 2 5.07053 4.6519 5.84686
137 2 2.11935 1.02745 4.29855
138 2 3.50335 0.88617 5.27503
139 2 1.91722 4.93184 6.23558
140 2 2.39819 6.21439 5.36227
141 2 5.5956 1.49121 1.96804
142 2 4.94495 2.8373 1.19247
143 2 4.7931 2.53177 5.29928
144 2 5.36101 1.29174 6.14052
145 2 1.64989 4.53728 8.22594
146 2 1.33818 3.38714 7.25395
147 2 1.62019 4.7368 3.85384
148 2 1.76822 4.67134 2.20053
149 2 3.64434 4.85984 1.18788
150 2 2.43707 6.11914 0.844852
151 2 3.47984 1.33939 1.19411
152 2 2.01316 1.28183 1.81453
153 2 5.64452 1.32211 4.16127
154 2 6.25298 13.6285 3.2283
155 2 5.90666 1.26647 8.18646
156 2 6.10642 13.6365 7.37908
157 2 6.99553 4.73205 7.33017
158 2 6.19931 6.16028 7.2677
159 2 1.67719 1.23219 6.47443
160 2 0.497475 1.3332 7.38036
161 2 8.42391 2.87564 3.40579
162 2 7.69416 1.29983 3.13637
163 2 12.4174 3.06011 0.791093
164 2 12.7556 4.57059 16.8154
165 2 12.8179 4.72882 2.17279
166 2 14.3648 4.74329 2.84381
167 2 12.6356 4.37657 4.28058
168 2 11.3027 4.57125 4.90452
169 2 10.9587 0.894484 5.02588
170 2 9.32807 1.26653 4.41663
171 2 9.82574 6.10903 5.42453
172 2 9.26706 4.88673 4.33418
173 2 11.4083 1.39446 1.25762
174 2 12.9979 1.3792 1.9912
175 2 12.4454 2.47988 5.40224
176 2 12.9603 1.28556 6.10257
177 2 9.12808 4.49173 6.4038
178 2 8.69879 3.21742 7.22742
179 2 7.67631 4.72692 3.1254
180 2 9.08896 5.05776 2.1492
181 2 9.51171 4.66013 16.7991
182 2 10.7914 4.75869 1.03441
183 2 9.39446 1.14748 17.2387
184 2 9.34789 1.46686 1.88869
185 2 13.0919 1.02515 3.99959
186 2 13.6198 13.7565 3.27053
187 2 13.0933 1.27308 8.13069
188 2 13.338 13.5236 7.58536
189 2 13.2031 4.56288 6.4431
190 2 14.5353 5.04953 7.3704
191 2 7.7572 1.43534 7.2355
192 2 9.07839 1.32337 6.26606
193 2 1.7333 8.31609 4.1304
194 2 1.53315 9.43422 2.96402
195 2 3.80184 11.541 1.01801
196 2 4.8605 10.0826 1.14043
197 2 7.24277 11.6555 3.04752
198 2 5.67386 11.5062 2.25792
199 2 5.53633 11.5092 4.25034
200 2 5.39065 11.5118 5.90118
201 2 1.92418 8.11509 6.13546
202 2 3.34184 8.14529 5.359
203 2 2.37898 12.7842 5.36368
204 2 3.4086 11.6268 5.24072
205 2 3.94058 8.30905 1.07402
206 2 5.23775 8.08644 16.8973
207 2 4.84693 9.63298 5.16891
208 2 5.30226 8.25475 4.24186
209 2 1.88429 11.4448 6.63711
210 2 1.06329 10.25 7.34562
211 2 14.9705 11.5593 3.38099
212 2 1.86205 11.5905 3.83851
213 2 1.94808 12.1515 1.9513
214 2 2.65482 13.1899 0.83349
215 2 1.85331 7.88368 1.76534
216 2 2.14765 8.00461 16.9449
217 2 7.40669 8.13934 3.12165
218 2 5.79878 7.89515 2.14616
219 2 5.76341 8.01644 6.4276
220 2 7.15201 8.22668 7.22997
221 2 5.74371 11.7973 8.27456
222 2 7.05987 11.5142 7.25602
223 2 14.9602 8.14832 7.5401
224 2 1.86122 8.24584 8.20647
225 2 8.96333 8.37257 3.84688
226 2 9.37213 8.24665 2.31015
227 2 11.3487 11.6373 0.905669
228 2 12.4176 10.1769 1.05659
229 2 12.991 11.8137 2.38758
230 2 13.1433 11.9467 3.85183
231 2 12.847 11.7361 6.05496
232 2 11.2121 11.5662 5.35548
233 2 10.7777 8.1286 5.11329
234 2 9.39997 8.16779 5.92317
235 2 10.0746 12.9951 5.03392
236 2 9.2851 11.5392 4.63759
237 2 13.0387 8.42145 1.83005
238 2 12.9312 8.22644 17.1649
239 2 12.7642 8.26592 4.24883
240 2 12.3718 9.70419 5.07877
241 2 9.22949 11.5813 7.97928
242 2 8.85754 11.6326 6.4324
243 2 8.55955 10.2661 2.89552
244 2 9.14408 11.6546 2.28929
245 2 9.82185 13.3407 1.24791
246 2 9.29594 11.8934 17.1974
247 2 10.9452 7.89895 0.860562
248 2 9.8284 6.61862 0.884488
249 2 14.4913 8.041 3.01233
250 2 13.4939 6.79234 3.15545
251 2 13.2249 6.87515 7.20386
252 2 12.7861 8.27483 6.45677
253 2 14.4311 11.8116 7.51258
254 2 13.026 11.6813 8.29551
255 2 8.38287 9.61593 7.35519
256 2 8.73412 8.20837 8.10408
257 2 1.84183 1.31553 10.7617
258 2 15.0895 1.43297 11.4791
259 2 5.51476 4.67459 10.0973
260 2 5.56865 4.49174 8.49606
261 2 6.22009 6.23389 11.4104
262 2 5.69311 4.99779 12.3115
263 2 4.12221 4.73589 13.6433
264 2 4.75891 3.4402 13.6971
265 2 2.08414 0.901931 12.8383
266 2 1.93099 1.24054 14.3588
267 2 1.93473 4.89666 14.6633
268 2 2.39544 6.25257 13.6706
269 2 4.07451 1.33772 9.32421
270 2 5.00148 2.68293 9.51091
271 2 3.92959 1.25423 13.8224
272 2 5.47025 1.50209 14.4569
273 2 1.80584 4.51046 16.5278
274 2 1.154 3.46373 15.5822
275 2 1.82112 4.45949 12.3855
276 2 1.38263 3.22284 11.5771
277 2 2.09788 4.7475 10.4728
278 2 3.5021 4.90363 9.51174
279 2 2.07673 1.22833 8.5821
280 2 2.186 13.8267 9.48163
281 2 5.63664 1.02567 10.977
282 2 5.88 1.20363 12.6463
283 2 6.03345 13.5818 15.8907
284 2 5.62951 1.13771 16.5967
285 2 7.0715 4.78008 15.7588
286 2 5.90829 4.67632 15.1196
287 2 14.9131 1.27966 15.6773
288 2 1.76354 1.27384 16.5473
289 2 7.68239 1.66934 11.6755
290 2 8.7035 2.74419 11.4089
291 2 12.8442 4.64448 8.71173
292 2 12.9107 4.6607 10.4421
293 2 14.49 4.6834 11.5758
294 2 13.1095 4.7422 12.3359
295 2 12.6849 4.66047 14.3102
296 2 12.4819 3.04147 13.5297
297 2 9.57543 13.5674 13.5205
298 2 9.28124 1.1882 12.6214
299 2 10.6574 4.65178 13.2252
300 2 9.27243 4.77664 12.4804
301 2 12.2565 2.62174 9.63095
302 2 11.3537 1.30508 9.4472
303 2 12.7945 1.29869 14.5261
304 2 11.2854 1.25606 13.4526
305 2 8.53632 2.931 15.5701
306 2 8.8985 4.44666 14.8837
307 2 8.95802 4.72856 10.418
308 2 7.63993 4.47444 11.4277
309 2 9.56996 4.57212 8.55086
310 2 10.7719 4.92856 9.24723
311 2 9.40582 1.18726 10.3174
312 2 9.51091 1.13004 8.6975
313 2 13.1068 1.0293 10.7279
314 2 12.9732 1.23026 12.3576
315 2 13.0671 1.04099 16.6131
316 2 13.4692 13.4745 15.9111
317 2 13.5448 5.98578 15.436
318 2 14.4564 4.79667 15.4742
319 2 7.67003 1.12258 15.7432
320 2 9.28459 1.3339 14.8162
321 2 1.59206 8.60615 10.6481
322 2 1.09501 9.69782 11.543
323 2 5.2952 11.5202 10.344
324 2 4.08698 11.5224 9.60845
325 2 5.48488 11.6673 12.3567
326 2 6.07344 13.0253 11.7522
327 2 3.85125 11.5793 13.8204
328 2 4.80424 10.1888 13.8277