ITEM: TIMESTEP
0
ITEM: NUMBER OF ATOMS
384
ITEM: BOX BOUNDS pp pp pp
0.0000000000000000e+00 1.5645677530000000e+01
0.0000000000000000e+00 1.4707145290000000e+01
0.0000000000000000e+00 1.8073037029999998e+01
ITEM: ATOMS id type x y z
1 1 1.38 1.76 3.37
2 1 5.2 4.47 1.11
3 1 6.59 5.39 3.31
4 1 5.28 4.49 5.56
5 1 2.59 0.84 5.67
6 1 2.69 5.43 5.56
7 1 5.2 1.71 1.07
8 1 5.2 1.73 5.58
9 1 1.32 4.61 7.82
10 1 1.3 4.52 3.36
11 1 2.61 5.41 1.1
12 1 2.59 0.82 1.07
13 1 6.54 0.87 3.33
14 1 6.54 0.88 7.83
15 1 6.51 5.4 7.86
16 1 1.35 1.85 7.92
17 1 9.2 1.76 3.37
18 1 13.05 4.55 1.15
19 1 14.35 5.46 3.4
20 1 13.1 4.49 5.66
21 1 10.41 0.84 5.67
22 1 10.51 5.43 5.65
23 1 13.07 1.79 1.07
24 1 13.02 1.73 5.58
25 1 9.15 4.61 7.91
26 1 9.2 4.52 3.4
27 1 10.45 5.49 1.15
28 1 10.49 0.82 1.12
29 1 14.36 0.87 3.33
30 1 14.36 0.88 7.83
31 1 14.36 5.48 7.9
32 1 9.17 1.85 7.92
33 1 1.3 9.11 3.32
34 1 5.3 11.9 1.11
35 1 6.53 12.81 3.4
36 1 5.2 11.84 5.61
37 1 2.59 8.19 5.58
38 1 2.61 12.79 5.61
39 1 5.25 9.14 1.16
40 1 5.2 9.08 5.67
41 1 1.32 11.96 7.91
42 1 1.38 11.87 3.31
43 1 2.69 12.77 1.06
44 1 2.67 8.17 1.12
45 1 6.49 8.14 3.42
46 1 6.49 8.16 7.92
47 1 6.53 12.83 7.81
48 1 1.35 9.21 7.83
49 1 9.09 9.19 3.37
50 1 13.13 11.9 1.11
51 1 14.44 12.82 3.35
52 1 13.1 11.84 5.56
53 1 10.41 8.19 5.58
54 1 10.51 12.79 5.65
55 1 12.99 9.14 1.12
56 1 13.02 9.08 5.67
57 1 9.12 11.89 7.86
58 1 9.15 11.95 3.4
59 1 10.51 12.77 1.15
60 1 10.38 8.25 1.12
61 1 14.29 8.22 3.37
62 1 14.36 8.24 7.92
63 1 14.36 12.83 7.81
64 1 9.12 9.13 7.83
65 1 1.35 1.83 12.45
66 1 5.2 4.47 10.14
67 1 6.59 5.39 12.34
68 1 5.3 4.56 14.65
69 1 2.67 0.84 14.66
70 1 2.69 5.43 14.6
71 1 5.28 1.71 10.15
72 1 5.25 1.81 14.61
73 1 1.32 4.61 16.85
74 1 1.32 4.59 12.35
75 1 2.63 5.49 10.09
76 1 2.64 0.89 10.2
77 1 6.57 0.79 12.41
78 1 6.54 0.88 16.87
79 1 6.53 5.48 16.94
80 1 1.35 1.85 16.86
81 1 9.2 1.76 12.41
82 1 13.02 4.47 10.14
83 1 14.35 5.46 12.34
84 1 13.05 4.57 14.6
85 1 10.46 0.91 14.71
86 1 10.46 5.51 14.69
87 1 13.1 1.71 10.15
88 1 13.07 1.81 14.61
89 1 9.15 4.61 16.94
90 1 9.2 4.52 12.44
91 1 10.45 5.49 10.18
92 1 10.49 0.82 10.16
93 1 14.39 0.79 12.41
94 1 14.36 0.88 16.87
95 1 14.33 5.4 16.89
96 1 9.17 1.85 16.96
97 1 1.3 9.11 12.45
98 1 5.28 11.83 10.1
99 1 6.59 12.74 12.34
100 1 5.3 11.92 14.65
101 1 2.59 8.19 14.71
102 1 2.69 12.79 14.6
103 1 5.2 9.07 10.2
104 1 5.17 9.16 14.66
105 1 1.38 11.89 16.85
106 1 1.38 11.87 12.35
107 1 2.71 12.84 10.14
108 1 2.56 8.25 10.16
109 1 6.49 8.14 12.46
110 1 6.46 8.24 16.91
111 1 6.61 12.83 16.89
112 1 1.3 9.13 16.96
113 1 9.09 9.19 12.41
114 1 13.13 11.9 10.14
115 1 14.41 12.74 12.44
116 1 13.1 11.84 14.69
117 1 10.38 8.27 14.66
118 1 10.53 12.86 14.64
119 1 12.99 9.14 10.15
120 1 13.02 9.08 14.7
121 1 9.23 11.96 16.9
122 1 9.23 11.95 12.39
123 1 10.51 12.77 10.09
124 1 10.38 8.25 10.16
125 1 14.29 8.22 12.41
126 1 14.31 8.16 16.96
127 1 14.44 12.83 16.89
128 1 9.09 9.21 16.91
129 2 0.46 1.48 3.37
130 2 1.33 2.71 3.37
131 2 5.68 4.81 1.86
132 2 5.67 4.81 0.35
133 2 6.13 5.1 4.1
134 2 6.56 6.34 3.34
135 2 4.38 4.84 5.6
136 2 5.7 4.83 6.36
137 2 2.17 1.18 4.88
138 2 3.49 1.17 5.63
139 2 2.23 5.15 6.35
140 2 2.65 6.39 5.59
141 2 5.65 1.43 1.86
142 2 5.23 2.67 1.1
143 2 5.23 2.69 5.61
144 2 5.65 1.45 6.37
145 2 1.78 4.88 8.61
146 2 1.33 3.65 7.85
147 2 1.78 4.85 4.11
148 2 1.78 4.85 2.6
149 2 3.52 5.14 1.1
150 2 2.64 6.37 1.11
151 2 3.49 1.15 1.11
152 2 2.17 1.16 1.87
153 2 6.09 1.14 4.12
154 2 6.53 14.6171 3.37
155 2 6.09 1.15 8.63
156 2 6.53 14.6371 7.86
157 2 7.43 5.14 7.86
158 2 6.53 6.36 7.86
159 2 1.77 1.51 7.13
160 2 0.46 1.51 7.89
161 2 9.16 2.71 3.37
162 2 8.28 1.48 3.37
163 2 13.06 3.59 1.12
164 2 13.5 4.82 0.36
165 2 13.94 5.12 2.61
166 2 15.25 5.14 3.36
167 2 13.52 4.82 4.86
168 2 12.21 4.84 5.62
169 2 11.31 1.17 5.63
170 2 10 1.18 4.88
171 2 10.47 6.39 5.62
172 2 10.05 5.15 4.86
173 2 12.18 1.46 1.11
174 2 13.49 1.45 1.86
175 2 13.05 2.69 5.61
176 2 13.48 1.45 6.37
177 2 9.61 4.88 7.11
178 2 9.16 3.65 7.88
179 2 8.3 4.84 3.36
180 2 9.61 4.85 2.61
181 2 10.04 5.17 0.35
182 2 11.35 5.14 1.11
183 2 10.02 1.16 0.36
184 2 10.02 1.16 1.88
185 2 13.91 1.14 4.12
186 2 14.35 14.6171 3.37
187 2 13.91 1.15 8.63
188 2 14.36 14.6371 7.86
189 2 13.94 5.14 7.11
190 2 15.26 5.16 7.86
191 2 8.28 1.51 7.89
192 2 9.59 1.51 7.13
193 2 1.75 8.83 4.12
194 2 1.33 10.07 3.36
195 2 4.39 12.19 1.1
196 2 5.25 10.94 1.11
197 2 7.43 12.49 3.36
198 2 6.12 12.48 2.61
199 2 5.68 12.17 4.85
200 2 5.68 12.18 6.37
201 2 2.17 8.54 6.37
202 2 3.49 8.52 5.61
203 2 2.64 13.74 5.61
204 2 3.52 12.51 5.61
205 2 4.35 8.81 1.13
206 2 5.66 8.81 0.36
207 2 5.23 10.04 5.63
208 2 5.65 8.8 4.88
209 2 1.78 12.24 7.11
210 2 1.34 11.01 7.88
211 2 0.48 12.2 3.35
212 2 1.79 12.21 4.11
213 2 2.23 12.49 1.85
214 2 2.65 13.72 1.09
215 2 2.19 8.52 1.88
216 2 2.2 8.52 0.36
217 2 7.38 8.49 3.39
218 2 6.07 8.48 2.63
219 2 6.07 8.5 7.13
220 2 7.38 8.51 7.89
221 2 6.12 12.49 8.61
222 2 7.43 12.51 7.85
223 2 0.46 8.86 7.86
224 2 1.77 8.86 8.62
225 2 9.57 8.85 4.13
226 2 9.57 8.84 2.61
227 2 12.21 12.19 1.1
228 2 13.08 10.94 1.11
229 2 13.95 12.48 2.6
230 2 13.95 12.48 4.11
231 2 13.52 12.18 6.36
232 2 12.21 12.19 5.6
233 2 11.31 8.52 5.61
234 2 10 8.54 6.37
235 2 10.47 13.74 5.62
236 2 10.05 12.51 4.86
237 2 13.47 8.8 1.87
238 2 13.47 8.81 0.36
239 2 13.48 8.8 4.88
240 2 13.05 10.04 5.63
241 2 9.6 12.22 8.62
242 2 9.6 12.22 7.11
243 2 9.16 10.99 3.37
244 2 9.61 12.22 2.61
245 2 10.48 13.72 1.13
246 2 10.05 12.49 0.35
247 2 11.3 8.53 1.12
248 2 10.43 7.29 1.11
249 2 15.2 8.51 3.37
250 2 14.34 7.26 3.37
251 2 14.36 7.28 7.88
252 2 13.91 8.52 7.13
253 2 15.26 12.51 7.85
254 2 13.94 12.49 8.61
255 2 9.15 10.09 7.86
256 2 9.57 8.85 8.62
257 2 1.77 1.49 11.66
258 2 0.46 1.49 12.42
259 2 5.68 4.81 10.9
260 2 5.67 4.81 9.38
261 2 6.56 6.34 12.38
262 2 6.13 5.1 13.14
263 2 4.39 4.85 14.65
264 2 5.25 3.61 14.65
265 2 2.19 1.18 13.9
266 2 2.19 1.18 15.42
267 2 2.23 5.15 15.39
268 2 2.65 6.39 14.63
269 2 4.36 1.44 10.15
270 2 5.24 2.67 10.15
271 2 4.35 1.48 14.65
272 2 5.66 1.47 15.41
273 2 1.78 4.88 17.65
274 2 1.33 3.65 16.89
275 2 1.78 4.87 13.14
276 2 1.34 3.64 12.39
277 2 2.21 5.16 10.89
278 2 3.52 5.14 10.13
279 2 2.19 1.18 9.41
280 2 2.63 14.6471 10.16
281 2 6.09 1.13 11.65
282 2 6.09 1.14 13.17
283 2 6.53 14.6371 16.9
284 2 6.09 1.15 17.67
285 2 7.43 5.16 16.9
286 2 6.12 5.14 16.15
287 2 0.46 1.51 16.89
288 2 1.77 1.51 17.66
289 2 8.28 1.48 12.41
290 2 9.16 2.71 12.4
291 2 13.5 4.81 9.38
292 2 13.5 4.81 10.9
293 2 15.25 5.14 12.39
294 2 13.94 5.13 13.14
295 2 13.51 4.84 15.39
296 2 13.06 3.61 14.64
297 2 10.46 14.6671 14.67
298 2 10.01 1.19 13.91
299 2 11.35 5.16 14.65
300 2 10.04 5.17 13.9
301 2 13.07 2.67 10.15
302 2 12.18 1.44 10.15
303 2 13.49 1.47 15.41
304 2 12.18 1.48 14.65
305 2 9.16 3.65 16.91
306 2 9.61 4.88 16.15
307 2 9.61 4.85 11.64
308 2 8.3 4.84 12.4
309 2 10.04 5.17 9.39
310 2 11.35 5.14 10.15
311 2 10.02 1.16 10.91
312 2 10.02 1.16 9.4
313 2 13.92 1.13 11.65
314 2 13.92 1.14 13.17
315 2 13.91 1.15 17.67
316 2 14.36 14.6371 16.9
317 2 14.36 6.36 16.9
318 2 15.25 5.14 16.9
319 2 8.28 1.51 16.93
320 2 9.59 1.51 16.17
321 2 1.75 8.83 11.66
322 2 1.33 10.07 12.41
323 2 5.7 12.16 10.89
324 2 4.38 12.17 10.13
325 2 6.13 12.46 13.14
326 2 6.56 13.7 12.38
327 2 4.39 12.21 14.65
328 2 5.25 10.96 14.65
329 2 3.49 8.52 14.67
330 2 2.17 8.53 13.91
331 2 2.65 13.74 14.63
332 2 2.23 12.5 15.39
333 2 5.22 10.02 10.17
334 2 5.65 8.79 9.4
335 2 5.65 8.81 13.9
336 2 5.65 8.82 15.42
337 2 0.48 12.22 16.89
338 2 1.79 12.22 17.65
339 2 0.48 12.2 12.39
340 2 1.79 12.21 13.14
341 2 2.23 12.52 9.38
342 2 2.23 12.51 10.89
343 2 2.61 7.29 10.15
344 2 3.48 8.53 10.16
345 2 7.38 8.49 12.42
346 2 6.07 8.48 11.66
347 2 6.52 7.28 16.91
348 2 7.37 8.53 16.91
349 2 6.14 12.5 17.65
350 2 6.13 12.5 16.14
351 2 1.75 8.84 16.16
352 2 1.33 10.09 16.92
353 2 9.57 8.85 13.16
354 2 9.57 8.84 11.65
355 2 13.08 10.94 10.15
356 2 12.21 12.19 10.14
357 2 14.37 13.7 12.41
358 2 13.95 12.46 11.65
359 2 12.21 12.19 14.66
360 2 13.52 12.17 13.9
361 2 11.3 8.55 14.66
362 2 10.43 7.31 14.66
363 2 10.05 12.53 15.4
364 2 10.05 12.52 13.89
365 2 13.47 8.81 9.39
366 2 13.47 8.8 10.91
367 2 13.48 8.8 13.91
368 2 13.05 10.04 14.67
369 2 9.19 11.01 16.9
370 2 8.31 12.24 16.9
371 2 8.31 12.22 12.39
372 2 9.19 10.99 12.4
373 2 10.48 13.72 10.13
374 2 10.05 12.49 10.88
375 2 10.43 7.29 10.15
376 2 11.3 8.53 10.16
377 2 15.2 8.51 12.41
378 2 14.34 7.26 12.4
379 2 15.2 8.51 16.93
380 2 13.89 8.5 16.17
381 2 13.96 12.5 17.65
382 2 13.95 12.5 16.14
383 2 9.57 8.86 16.15
384 2 9.56 8.86 17.67
ITEM: TIMESTEP
200
ITEM: NUMBER OF ATOMS
384
ITEM: BOX BOUNDS pp pp pp
2.4136573719089505e-01 1.5404311792809107e+01
2.3499875751976607e-01 1.4472146532480238e+01
3.2049711169290340e-01 1.7752539918307097e+01
ITEM: ATOMS id type x y z
1 1 1.34915 1.6983 3.29066
2 1 5.03051 4.45721 1.02013
3 1 6.31692 5.28592 3.25217
4 1 5.01334 4.32944 5.40963
5 1 2.54642 0.683835 5.44897
6 1 2.47176 5.26177 5.48537
7 1 5.01472 1.72851 1.05416
8 1 5.09726 1.62864 5.47556
9 1 1.28959 4.42534 7.64021
10 1 1.25852 4.33078 3.26746
11 1 2.50407 5.22652 1.14129
12 1 2.52305 0.820745 1.0643
13 1 6.22834 0.859126 3.27909
14 1 6.30548 0.685216 7.61253
15 1 6.32115 5.26026 7.56848
16 1 1.38053 1.73198 7.5522
17 1 8.81805 1.81521 3.30054
18 1 12.604 4.3988 1.06802
19 1 13.9045 5.22132 3.19243
20 1 12.7473 4.38474 5.46472
21 1 10.1022 0.92133 5.3861
22 1 10.1912 5.25211 5.42166
23 1 12.7413 1.68707 1.01865
24 1 12.7427 1.72872 5.31892
25 1 8.85503 4.26916 7.62563
26 1 8.87766 4.46659 3.23946
27 1 10.1071 5.33987 0.98152
28 1 10.1743 0.942687 1.09485
29 1 13.9193 0.766416 3.15391
30 1 13.9387 0.862367 7.62317
31 1 13.9792 5.22914 7.60137
32 1 8.87813 1.71035 7.5481
33 1 1.24518 8.75014 3.26567
34 1 5.08835 11.4715 1.16483
35 1 6.33204 12.3947 3.23204
36 1 5.00143 11.5257 5.40239
37 1 2.49375 8.04288 5.42264
38 1 2.49985 12.336 5.34274
39 1 5.06081 8.82003 1.10263
40 1 5.13768 8.88223 5.37913
41 1 1.30323 11.5235 7.51312
42 1 1.31043 11.4534 3.16232
43 1 2.60592 12.3999 0.99136
44 1 2.53259 7.92999 1.11158
45 1 6.31076 7.9905 3.33055
46 1 6.25179 7.95766 7.59663
47 1 6.24151 12.3757 7.55615
48 1 1.29578 8.91315 7.65786
49 1 8.83809 8.8275 3.29204
50 1 12.7326 11.4443 1.0458
51 1 13.9423 12.3139 3.16663
52 1 12.6872 11.649 5.39322
53 1 10.0585 7.90042 5.36036
54 1 10.1097 12.4086 5.40436
55 1 12.6683 8.75068 1.10902
56 1 12.5635 8.7995 5.34127
57 1 8.80726 11.4447 7.43924
58 1 8.81625 11.4865 3.21632
59 1 10.129 12.4616 1.10429
60 1 10.0903 7.9908 1.20946
61 1 13.9917 7.99494 3.27816
62 1 13.866 7.90841 7.54733
63 1 14.0157 12.4953 7.63501
64 1 8.82526 8.7878 7.57372
65 1 1.2602 1.71905 12.0143
66 1 5.04373 4.39741 9.77381
67 1 6.34583 5.35529 11.8909
68 1 5.09661 4.35258 14.0552
69 1 2.5659 0.874387 14.2503
70 1 2.6174 5.25538 14.0844
71 1 5.12197 1.74062 9.86886
72 1 5.14189 1.58417 14.2271
73 1 1.233 4.4177 16.3346
74 1 1.45088 4.4288 12.0353
75 1 2.6724 5.21931 9.67907
76 1 2.64432 0.89463 9.7952
77 1 6.34388 0.854326 12.0133
78 1 6.46194 0.794416 16.3958
79 1 6.37612 5.35275 16.2722
80 1 1.3165 1.74044 16.3417
81 1 8.81971 1.714 12.0184
82 1 12.729 4.40037 9.80876
83 1 13.9695 5.29865 11.9295
84 1 12.6924 4.37679 14.1037
85 1 10.1215 0.859679 14.2201
86 1 10.0862 5.18687 14.0475
87 1 12.6846 1.76643 9.76382
88 1 12.7275 1.75562 14.2071
89 1 8.7896 4.37028 16.335
90 1 8.82333 4.37991 11.8143
91 1 10.1939 5.2572 9.69601
92 1 10.1484 0.913396 9.70923
93 1 13.9702 0.819248 11.8872
94 1 14.0081 0.826311 16.3107
95 1 13.8756 5.25103 16.2727
96 1 8.92249 1.83044 16.3389
97 1 1.14688 8.75619 11.9672
98 1 5.11029 11.5745 9.80911
99 1 6.35687 12.3515 11.9812
100 1 5.11155 11.5045 14.196
101 1 2.51068 7.98053 14.1909
102 1 2.55794 12.4473 14.0468
103 1 5.07583 8.82931 9.723
104 1 5.09348 8.80653 14.1763
105 1 1.37617 11.4807 16.185
106 1 1.31152 11.572 12.0419
107 1 2.56631 12.4573 9.84834
108 1 2.5688 7.932 9.80072
109 1 6.15913 7.99332 11.9857
110 1 6.27212 7.99838 16.4089
111 1 6.31787 12.3458 16.3358
112 1 1.20273 8.77898 16.3937
113 1 8.83704 8.72315 11.959
114 1 12.6312 11.5707 9.81334
115 1 13.9491 12.3659 11.9443
116 1 12.7606 11.5017 14.1706
117 1 9.97086 7.88948 14.2304
118 1 10.2591 12.3851 14.1518
119 1 12.6543 8.87746 9.83111
120 1 12.6288 8.80514 14.2081
121 1 8.92527 11.5853 16.2922
122 1 8.91015 11.4373 11.9097
123 1 10.0996 12.4377 9.71683
124 1 10.1273 7.94956 9.80583
125 1 13.7771 7.96595 11.9332
126 1 13.9223 7.97666 16.3319
127 1 14.0242 12.3651 16.2992
128 1 8.77059 8.85116 16.3207
129 2 0.484819 1.12791 3.18154
130 2 1.0163 2.69998 3.28704
131 2 5.41097 4.66944 1.72098
132 2 5.60431 4.88633 17.5782
133 2 5.68414 4.95405 4.07419
134 2 6.1247 6.19532 3.39482
135 2 3.98948 4.55172 5.38356
136 2 5.27665 4.74171 6.22929
137 2 2.01311 1.10104 4.61776
138 2 3.43089 1.07936 5.29085
139 2 2.0055 5.01104 6.41961
140 2 2.24689 6.16432 5.42507
141 2 5.51878 1.46327 1.86803
142 2 4.87405 2.74471 1.27279
143 2 5.03964 2.60822 5.41784
144 2 5.42236 1.27078 6.23436
145 2 1.79248 4.5529 8.40452
146 2 1.21922 3.38486 7.52533
147 2 1.6142 4.87724 4.07805
148 2 1.70046 4.64753 2.49204
149 2 3.43137 5.078 1.00969
150 2 2.3851 6.30186 1.20925
151 2 3.2785 1.3182 1.15039
152 2 2.07849 1.19093 1.83117
153 2 5.91891 1.17579 4.20967
154 2 6.21475 14.1838 3.34513
155 2 5.80071 0.975584 8.42637
156 2 6.09534 13.8259 7.72864
157 2 7.21468 4.89135 7.50493
158 2 6.15059 6.15086 7.49906
159 2 1.64296 1.37675 6.67888
160 2 0.391375 1.48929 7.58605
161 2 8.71017 2.80435 3.18147
162 2 8.04633 1.23526 3.33367
163 2 12.5672 3.40044 1.06217
164 2 13.2753 4.51183 17.6762
165 2 13.7056 4.91833 2.19716
166 2 14.9303 5.00813 3.38378
167 2 13.167 4.78852 4.65656
168 2 11.7899 4.58414 5.35345
169 2 11.0452 1.14633 5.15974
170 2 9.65561 1.32351 4.61512
171 2 10.0394 6.21554 5.43396
172 2 9.7302 4.88542 4.72915
173 2 11.7335 1.5291 1.05176
174 2 13.1995 1.39784 1.88364
175 2 12.9098 2.60783 5.33425
176 2 13.1542 1.58213 6.28127
177 2 9.38212 4.52041 6.8099
178 2 8.76934 3.25729 7.73596
179 2 7.90297 4.837 3.12436
180 2 9.4528 4.72045 2.44675
181 2 9.68087 5.00718 17.547
182 2 10.9437 4.74492 1.00275
183 2 9.73078 1.27796 17.6877
184 2 9.80585 1.41248 1.86044
185 2 13.602 1.00054 4.06062
186 2 13.8271 13.9431 3.12097
187 2 13.5492 1.25404 8.412
188 2 13.9069 14.0218 7.65197
189 2 13.6696 4.87732 6.7904
190 2 14.9891 5.19181 7.73576
191 2 8.04331 1.39007 7.5539
192 2 9.35652 1.42753 6.6678
193 2 1.75462 8.60212 4.20324
194 2 1.29926 9.74867 3.13179
195 2 4.16579 11.8176 1.10009
196 2 4.83428 10.4078 1.01501
197 2 7.19787 11.9373 3.03599
198 2 5.83678 12.184 2.34427
199 2 5.5141 11.9573 4.50349
200 2 5.61942 11.8382 6.00528
201 2 2.16769 8.50588 6.21574
202 2 3.55456 8.41502 5.37262
203 2 2.47401 13.2607 5.46896
204 2 3.36996 12.1514 5.29428
205 2 3.939 8.60632 1.03937
206 2 5.50908 8.33108 0.387929
207 2 5.12495 9.84446 5.43905
208 2 5.67718 8.38363 4.53767
209 2 1.78956 11.7777 6.62581
210 2 1.32588 10.5015 7.64883
211 2 0.244598 11.8702 2.97481
212 2 1.81552 11.6976 4.01929
213 2 2.07486 12.0949 1.82372
214 2 2.56975 13.3676 1.01567
215 2 2.09919 8.3369 1.87731
216 2 2.10475 8.22109 17.6331
217 2 7.32132 8.20408 3.46533
218 2 6.00989 8.49793 2.50435
219 2 5.8001 8.23375 6.7002
220 2 7.21261 8.29219 7.58176
221 2 5.83216 11.939 8.25295
222 2 7.25768 11.9835 7.53113
223 2 0.384258 8.419 7.66003
224 2 1.76228 8.51002 8.27428
225 2 9.36307 8.56794 4.02618
226 2 9.30073 8.50519 2.4552
227 2 11.8682 12.0584 0.916711
228 2 12.646 10.3869 0.986703
229 2 13.5736 11.8848 2.42287
230 2 13.4593 11.9736 4.02691
231 2 13.2972 11.8711 6.22001
232 2 11.7461 11.8947 5.39551
233 2 11.024 8.08662 5.42336
234 2 9.70875 8.35715 6.09805
235 2 9.9699 13.3672 5.36624
236 2 9.66662 12.0576 4.57086
237 2 13.1692 8.54184 1.95837
238 2 13.2201 8.36379 0.351792
239 2 13.1597 8.53855 4.61068
240 2 12.7678 9.86426 5.32235
241 2 9.28246 12.0566 8.38738
242 2 9.36525 11.7955 6.74578
243 2 8.86457 10.4797 3.26272
244 2 9.27031 11.8069 2.53132
245 2 9.99668 13.4046 0.986078
246 2 9.92533 11.8913 17.5955
247 2 10.9998 8.2383 1.04028
248 2 10.056 6.97738 0.929864
249 2 15.0522 8.36148 3.25964
250 2 14.1118 7.04343 3.07291
251 2 13.8473 6.97625 7.4037
252 2 13.3297 8.32401 6.6276
253 2 14.9339 12.2955 7.56965
254 2 13.4912 12.1568 8.37603
255 2 9.10577 9.68041 7.36686
256 2 9.22852 8.5367 8.48353
257 2 1.73908 1.30433 11.059
258 2 0.407306 1.33311 12.2477
259 2 5.51765 4.82681 10.5089
260 2 5.42139 4.79372 8.91104
261 2 6.30908 6.33199 11.8942
262 2 5.71233 5.24572 12.6911
263 2 3.98108 4.55207 14.1301
264 2 5.09158 3.3397 14.0758
265 2 2.05651 1.24371 13.4321
266 2 2.00766 1.00604 14.9771
267 2 2.03904 5.12647 15.0743
268 2 2.70643 6.22788 14.1947
269 2 4.16522 1.40106 10.0471
270 2 5.13566 2.71904 9.66996
271 2 4.15987 1.414 14.2127
272 2 5.45106 1.32284 15.1149
273 2 1.91599 4.47179 16.9891
274 2 1.45613 3.34588 16.3113
275 2 1.99979 4.89033 12.7528
276 2 1.40323 3.33121 12.0338
277 2 2.24981 4.93383 10.5821
278 2 3.61437 4.7334 9.63649
279 2 2.28395 1.16755 8.89162
280 2 2.40927 14.2178 9.87617
281 2 5.83654 1.24795 11.1939
282 2 5.82607 1.15453 12.8677
283 2 6.38421 14.1047 16.6335
284 2 5.8056 1.03946 17.1408
285 2 7.33927 4.80103 16.3768
286 2 5.73913 5.11553 15.5278
287 2 0.337751 1.26985 16.4503
288 2 1.73364 1.36694 17.1527
289 2 7.91528 1.46246 11.9779
290 2 8.95691 2.84126 11.8645
291 2 13.2565 4.65962 9.05863
292 2 13.1051 4.82954 10.6042
293 2 14.8608 4.82922 12.0203
294 2 13.5164 4.80851 12.8002
295 2 13.0857 4.60176 15.0073
296 2 12.7533 3.30159 13.991
297 2 10.1576 14.0868 14.0136
298 2 9.55186 1.15922 13.4971
299 2 11.0115 5.10907 14.1518
300 2 9.57885 4.85985 13.1505
301 2 12.5272 2.81327 9.76748
302 2 11.6866 1.52057 9.77484
303 2 12.9982 1.3955 15.0397
304 2 11.8346 1.48678 14.1398
305 2 8.84802 3.2269 16.2941
306 2 9.31731 4.59221 15.5006
307 2 9.23926 4.69991 10.9318
308 2 7.79246 4.69435 11.7046
309 2 9.80749 4.84036 8.70382
310 2 11.1094 4.90348 9.85812
311 2 9.62534 1.28545 10.4874
312 2 9.71549 1.07996 8.99597
313 2 13.1878 1.44847 10.9828
314 2 13.4246 0.927508 12.8149
315 2 13.5732 1.03292 17.1031
316 2 14.2453 14.1811 16.2686
317 2 13.9318 6.27528 16.3043
318 2 14.9513 5.11557 16.1819
319 2 8.01777 1.52805 16.436
320 2 9.34567 1.4937 15.4852
321 2 1.82412 8.35272 11.1475
322 2 1.35178 9.65351 11.9026
323 2 5.62485 11.7669 10.6911
324 2 4.27075 12.0912 9.70022
325 2 5.68233 11.8894 12.6864
326 2 6.45473 13.3008 11.9337
327 2 4.2307 11.9344 14.127
328 2 5.20443 10.5695 14.1506
329 2 3.30269 8.38684 14.2933
330 2 2.14283 8.41182 13.4589
331 2 2.60453 13.6094 13.9239
332 2 2.05253 12.3082 14.9194
333 2 5.20918 9.91073 9.68344
334 2 5.31023 8.43641 8.94853
335 2 5.4704 8.39797 13.2157
336 2 5.73381 8.52047 14.8177
337 2 0.490794 11.8063 16.1755
338 2 1.74031 11.8886 16.9221
339 2 0.282446 11.8035 11.7901
340 2 1.88259 11.8408 12.9763
341 2 1.90212 11.9501 9.15428
342 2 1.81978 12.3087 10.5851
343 2 2.71033 6.90435 9.73599
344 2 3.55333 8.30036 9.69948
345 2 7.02818 8.50036 12.0459
346 2 5.74422 8.30595 11.2488
347 2 6.33737 7.07514 16.3358
348 2 7.21473 8.22282 16.5571
349 2 5.87712 12.0595 17.2231
350 2 5.7241 12.0749 15.6693
351 2 1.58141 8.52586 15.4205
352 2 1.15963 9.82354 16.4785
353 2 9.12839 8.41279 12.8023
354 2 9.31757 8.30206 11.1024
355 2 12.5684 10.4296 9.74637
356 2 11.6465 11.7652 9.83962
357 2 13.9473 13.2932 12.0087
358 2 13.4427 12.0657 11.0043
359 2 11.9612 11.8683 14.2735
360 2 12.8941 11.8597 13.2115
361 2 10.9827 8.18937 14.1446
362 2 10.1109 6.96451 14.288
363 2 9.79723 12.2578 15.0053
364 2 9.80362 12.2264 13.2816
365 2 12.9403 8.45892 9.0181
366 2 13.2476 8.4774 10.6402
367 2 13.1406 8.57041 13.3059
368 2 12.7181 9.96221 14.1845
369 2 8.98412 10.5734 16.5852
370 2 7.88503 11.8144 16.4337
371 2 8.16648 11.9388 12.1503
372 2 8.82968 10.4985 12.0415
373 2 10.1285 13.4177 9.6909
374 2 9.71633 12.2002 10.4908
375 2 10.1555 6.99664 9.74987
376 2 11.0052 8.14461 9.73856
377 2 14.7383 8.31758 11.8023
378 2 13.9116 6.97461 11.9269
379 2 14.8031 8.25552 16.1759
380 2 13.4708 8.27292 15.4804
381 2 13.4384 11.9177 17.0864
382 2 13.5544 12.0829 15.5548
383 2 9.36293 8.45558 15.4446
384 2 9.3142 8.57348 17.0569
ITEM: TIMESTEP
400
ITEM: NUMBER OF ATOMS
384
ITEM: BOX BOUNDS pp pp pp
4.6654049692420863e-01 1.5179137033075790e+01
4.3348055518130035e-01 1.4273664734818711e+01
6.2313843955395143e-01 1.7449898590446061e+01
ITEM: ATOMS id type x y z
1 1 1.41764 1.6672 3.31248
2 1 5.07648 4.44012 1.05786
3 1 6.15064 5.1056 3.26274
4 1 4.84242 4.17966 5.11468
5 1 2.54609 0.582655 5.30902
6 1 2.47546 5.14984 5.28113
7 1 4.84436 1.79417 1.17789
8 1 4.96303 1.58349 5.24631
9 1 1.16346 4.33643 7.44042
10 1 1.21338 4.35685 3.0577
11 1 2.50551 5.06691 1.06357
12 1 2.46865 0.921795 1.11002
13 1 6.14392 0.837357 3.10645
14 1 6.26092 0.786955 7.33008
15 1 6.13298 5.16453 7.21691
16 1 1.4577 1.75453 7.30505
17 1 8.54361 1.79265 3.14099
18 1 12.3077 4.1906 0.831911
19 1 13.4083 4.98122 2.96656
20 1 12.2495 4.11241 5.10565
21 1 9.90537 0.717674 5.08432
22 1 9.84647 5.04298 5.212
23 1 12.292 1.61879 1.04783
24 1 12.3883 1.53526 5.25072
25 1 8.63873 4.16505 7.31226
26 1 8.51802 4.38687 3.04635
27 1 9.82739 5.17961 0.874873
28 1 9.76938 0.877191 1.14702
29 1 13.6446 0.883965 3.1378
30 1 13.617 0.847014 7.4982
31 1 13.4962 5.21035 7.19259
32 1 8.77292 1.47073 7.31943
33 1 1.26593 8.54703 3.17641
34 1 4.95686 11.0933 1.08651
35 1 6.26374 12.0309 3.00443
36 1 4.92814 11.2766 5.11484
37 1 2.45903 7.7799 5.36834
38 1 2.37914 11.8822 5.2041
39 1 4.79568 8.59214 1.08383
40 1 4.86772 8.56481 5.07746
41 1 1.21161 11.1485 7.37423
42 1 1.24366 11.2194 3.09284
43 1 2.57514 12.1991 1.02926
44 1 2.39288 7.58564 1.02111
45 1 6.30958 7.71732 3.05349
46 1 6.1634 7.75081 7.26134
47 1 6.06038 11.9624 7.32823
48 1 1.22065 8.45848 7.33433
49 1 8.65555 8.59636 3.07942
50 1 12.2963 11.195 1.04859
51 1 13.475 12.2085 3.12329
52 1 12.3359 11.3835 5.30367
53 1 9.9319 7.63801 5.27345
54 1 9.77558 12.0242 5.29871
55 1 12.3945 8.62324 1.09636
56 1 12.25 8.76166 5.11004
57 1 8.49557 11.2113 7.31886
58 1 8.73034 11.2062 3.08627
59 1 9.88221 12.1351 1.09331
60 1 9.84573 7.72605 0.9928
61 1 13.5734 7.65499 3.0998
62 1 13.3864 7.84438 7.20942
63 1 13.4668 12.1054 7.48751
64 1 8.54372 8.63451 7.30528
65 1 1.41617 1.67375 11.6111
66 1 4.96794 4.22579 9.40429
67 1 6.258 5.2068 11.5
68 1 5.03623 4.42919 13.6195
69 1 2.55148 0.823164 13.7251
70 1 2.46109 5.22478 13.6953
71 1 5.02331 1.61104 9.68811
72 1 4.94536 1.89096 13.7678
73 1 1.13773 4.37208 15.6775
74 1 1.33361 4.25426 11.6625
75 1 2.52288 5.16832 9.61823
76 1 2.5617 0.790554 9.46363
77 1 6.21021 0.790862 11.7482
78 1 6.18319 0.800575 15.8844
79 1 6.25174 5.14483 15.8207
80 1 1.25157 1.63308 15.7554
81 1 8.56055 1.72285 11.4987
82 1 12.4153 4.29528 9.40351
83 1 13.5858 5.10906 11.6064
84 1 12.1637 4.15882 13.6077
85 1 9.74587 0.825298 13.6128
86 1 9.80745 5.06612 13.4351
87 1 12.2121 1.67758 9.53596
88 1 12.2606 1.52134 13.7025
89 1 8.70767 4.14247 15.6805
90 1 8.51625 4.24429 11.3875
91 1 9.91189 5.1821 9.29084
92 1 9.92918 0.719521 9.53728
93 1 13.6435 0.945476 11.5529
94 1 13.5653 0.582814 15.8508
95 1 13.491 5.15042 15.5587
96 1 8.64001 1.63861 15.705
97 1 1.26178 8.71405 11.5105
98 1 4.84265 11.2739 9.50248
99 1 6.18634 12.0253 11.5579
100 1 4.85552 11.231 13.7326
101 1 2.37292 7.72398 13.6626
102 1 2.45671 11.9894 13.6272
103 1 4.69802 8.66988 9.42828
104 1 4.77593 8.68392 13.6776
105 1 1.28288 11.0508 15.811
106 1 1.14961 11.305 11.4474
107 1 2.40357 12.1006 9.41866
108 1 2.35078 7.67155 9.46382
109 1 6.09189 7.92207 11.5247
110 1 6.1718 7.79565 15.7881
111 1 6.22635 11.9807 15.7545
112 1 1.25472 8.59059 15.7249
113 1 8.64093 8.63936 11.5074
114 1 12.2247 11.2389 9.43294
115 1 13.4369 12.1743 11.505
116 1 12.1201 11.2443 13.5415
117 1 9.79413 7.59881 13.717
118 1 9.78738 12.0678 13.5097
119 1 12.2132 8.57407 9.45307
120 1 12.2009 8.64342 13.5427
121 1 8.73075 11.3345 15.8408
122 1 8.50977 11.0891 11.5204
123 1 9.75692 11.9567 9.47911
124 1 9.80101 7.72815 9.39933
125 1 13.5392 7.6893 11.5318
126 1 13.5215 7.76998 15.7202
127 1 13.5901 11.8509 15.8063
128 1 8.51134 8.65765 15.7277
129 2 0.587627 1.24043 3.26393
130 2 1.36882 2.71932 3.1651
131 2 5.30143 4.7899 1.95093
132 2 5.69583 4.60724 17.0829
133 2 5.7158 4.78083 4.02549
134 2 6.18507 6.20026 3.27338
135 2 3.74965 4.51955 5.06791
136 2 5.0967 4.64833 5.86002
137 2 2.08119 0.890851 4.21472
138 2 3.42795 0.89181 5.27004
139 2 1.81828 5.04438 6.13278
140 2 2.40974 6.15437 5.43831
141 2 5.5249 1.43193 2.07503
142 2 4.98954 2.71549 1.10514
143 2 4.77377 2.56926 5.25104
144 2 5.2915 1.18802 6.12975
145 2 1.67546 4.59787 8.14542
146 2 1.40297 3.3756 7.21967
147 2 1.53474 4.78574 3.95004
148 2 1.7924 4.67167 2.25846
149 2 3.58146 4.91632 1.2038
150 2 2.51318 6.04182 0.841607
151 2 3.51558 1.38432 1.0748
152 2 1.98649 1.33059 1.89085
153 2 5.72765 1.26743 4.15328
154 2 6.27085 13.678 3.32867
155 2 5.84788 1.24513 8.1845
156 2 6.11768 13.6657 7.47749
157 2 6.91882 4.71509 7.26668
158 2 6.14875 6.21568 7.15868
159 2 1.68361 1.30509 6.45865
160 2 15.0893 1.2593 7.39391
161 2 8.50035 2.88987 3.3957
162 2 7.70221 1.32309 3.05194
163 2 12.449 3.10387 0.78103
164 2 12.6949 4.50054 16.8218
165 2 12.8393 4.65199 2.31931
166 2 14.4085 4.77672 2.84234
167 2 12.6565 4.40203 4.28928
168 2 11.3796 4.60967 4.94884
169 2 10.9367 0.854646 5.07253
170 2 9.34961 1.32034 4.45624
171 2 9.9323 6.10254 5.43437
172 2 9.29447 4.76691 4.26254
173 2 11.2179 1.29144 1.12831
174 2 13.1002 1.35492 1.9255
175 2 12.416 2.49212 5.43014
176 2 13.0018 1.36607 6.26332
177 2 9.0966 4.57507 6.31939
178 2 8.70248 3.2625 7.32972
179 2 7.71818 4.78964 3.17762
180 2 9.11239 4.94776 2.10633
181 2 9.42903 4.74324 16.7622
182 2 10.7483 4.73962 1.06839
183 2 9.38418 1.22901 17.2037
184 2 9.32067 1.46807 1.84386
185 2 13.0256 1.05714 4.0215
186 2 13.5902 13.6486 3.30881
187 2 13.0977 1.1858 8.14042
188 2 13.364 13.6125 7.67205
189 2 13.2651 4.59701 6.51901
190 2 14.4901 5.02566 7.33164
191 2 7.84381 1.30158 7.21165
192 2 9.04542 1.4302 6.40359
193 2 1.75408 8.24523 4.08034
194 2 1.45154 9.41247 2.96414
195 2 3.83478 11.5647 0.963709
196 2 4.79811 10.0672 1.13522
197 2 7.24678 11.7025 3.06337
198 2 5.71794 11.6557 2.26399
199 2 5.53557 11.5049 4.38381
200 2 5.38706 11.5742 5.91324
201 2 1.89987 8.19551 6.17987
202 2 3.3828 8.16379 5.43499
203 2 2.46125 12.832 5.3044
204 2 3.48716 11.5635 5.25565
205 2 3.95096 8.29975 1.12602
206 2 5.19059 8.10448 16.8828
207 2 4.8816 9.55994 5.14802
208 2 5.34426 8.27917 4.22666
209 2 1.80322 11.4363 6.56934
210 2 1.18432 10.1378 7.33645
211 2 15.1273 11.6144 3.46318
212 2 1.81465 11.6611 3.7388
213 2 2.00578 12.0979 1.94306
214 2 2.60462 13.056 0.870569
215 2 1.88031 7.94321 1.80986
216 2 2.06356 8.00706 16.969
217 2 7.34551 8.07668 3.14614
218 2 5.79899 7.95391 2.17144
219 2 5.77945 8.07171 6.38253
220 2 7.20344 8.17356 7.17027
221 2 5.77851 11.7794 8.25527
222 2 6.93752 11.4729 7.27669
223 2 15.0485 8.13509 7.43445
224 2 1.75209 8.22346 8.29018
225 2 9.03783 8.31316 3.84696
226 2 9.28674 8.25255 2.32909
227 2 11.3138 11.6159 0.92814
228 2 12.3254 10.2028 1.11912
229 2 12.972 11.8037 2.20179
230 2 13.1048 12.0016 3.86192
231 2 12.9353 11.7043 6.03004
232 2 11.2979 11.5418 5.42451
233 2 10.7673 8.02903 5.11898
234 2 9.39601 8.14224 6.12143
235 2 10.0148 12.9475 5.15634
236 2 9.27207 11.5573 4.57066
237 2 13.0584 8.38866 1.89271
238 2 12.9179 8.20779 17.1673
239 2 12.8656 8.28523 4.20267
240 2 12.414 9.68088 5.07741
241 2 9.16371 11.522 7.90155
242 2 8.88665 11.6553 6.38987
243 2 8.68033 10.2765 2.85174
244 2 9.10995 11.6018 2.34184
245 2 9.84539 13.4078 1.33414
246 2 9.36443 11.9497 17.1677
247 2 11.0292 7.95069 0.997821
248 2 9.85002 6.63109 0.985545
249 2 14.6048 8.03976 3.14852
250 2 13.4534 6.63881 3.15504
251 2 13.2318 6.82227 7.17103
252 2 12.8598 8.33238 6.55204
253 2 14.4826 11.8608 7.47546
254 2 12.8761 11.7453 8.36012
255 2 8.2843 9.61221 7.39401
256 2 8.73398 8.28956 8.27043
257 2 1.91092 1.18967 10.7819
258 2 15.1368 1.39114 11.5253
259 2 5.57825 4.6788 10.0833
260 2 5.49955 4.3973 8.4607
261 2 6.23665 6.15629 11.4519
262 2 5.72636 5.01697 12.3665
263 2 4.0716 4.76622 13.793
264 2 4.79943 3.46754 13.6353
265 2 2.12942 0.932725 12.9105
266 2 2.00823 1.25344 14.4951
267 2 1.94659 4.83834 14.6259
268 2 2.4757 6.22533 13.6113
269 2 4.00879 1.25744 9.37403
270 2 4.88995 2.48804 9.52965
271 2 3.90745 1.26847 13.817
272 2 5.50619 1.47102 14.5715
273 2 1.73574 4.53562 16.5307
274 2 1.10185 3.38019 15.7379
275 2 1.93192 4.44009 12.3778
276 2 1.37468 3.18537 11.6106
277 2 2.17687 4.83786 10.4249
278 2 3.47869 5.06151 9.5979
279 2 2.08042 1.14491 8.65494
280 2 2.33515 13.8084 9.48854
281 2 5.65984 1.03867 10.8037
282 2 5.87343 1.05433 12.6742
283 2 6.01605 13.5217 15.8903
284 2 5.54535 1.13321 16.6086
285 2 7.13714 4.82059 15.7485
286 2 5.86896 4.77508 15.0393
287 2 14.9518 1.18125 15.6523
288 2 1.74184 1.34511 16.5692
289 2 7.67645 1.63554 11.5694
290 2 8.60681 2.82437 11.3986
291 2 12.8627 4.73553 8.73911
292 2 12.8982 4.55156 10.3454
293 2 14.6348 4.63443 11.5602
294 2 13.0964 4.7282 12.3804
295 2 12.6539 4.74397 14.3456
296 2 12.553 3.05824 13.5479
297 2 9.52367 13.5797 13.5912
298 2 9.39298 1.30261 12.5644
299 2 10.6882 4.56301 13.2776
300 2 9.30327 4.78342 12.5014
301 2 12.1688 2.62548 9.59195
302 2 11.3579 1.28901 9.38003
303 2 12.7718 1.2184 14.549
304 2 11.2771 1.21953 13.4496
305 2 8.52194 3.08876 15.6187
306 2 8.97324 4.51757 14.8646
307 2 9.00248 4.66501 10.4926
308 2 7.56161 4.56712 11.49
309 2 9.51468 4.65037 8.54204
310 2 10.7972 4.92013 9.28527
311 2 9.42224 1.18703 10.4738
312 2 9.51008 1.19712 8.63194
313 2 13.0333 1.20858 10.7722
314 2 13.0275 1.30919 12.4176
315 2 13.0583 1.14758 16.6642
316 2 13.5058 13.5718 15.868
317 2 13.5414 6.01242 15.4669
318 2 14.3752 4.72589 15.4474
319 2 7.69598 1.2079 15.8248
320 2 9.23375 1.32124 14.8746
321 2 1.5406 8.58221 10.6831
322 2 1.12212 9.65893 11.4992
323 2 5.37686 11.4565 10.3023
324 2 4.03233 11.5568 9.5903
325 2 5.3461 11.6611 12.2452
326 2 6.16534 13.1061 11.6658
327 2 3.97598 11.6081 13.8955