ITEM: TIMESTEP
0
ITEM: NUMBER OF ATOMS
384
ITEM: BOX BOUNDS pp pp pp
0.0000000000000000e+00 1.5645677530000000e+01
0.0000000000000000e+00 1.4707145290000000e+01
0.0000000000000000e+00 1.8073037029999998e+01
ITEM: ATOMS id type x y z
1 1 1.38 1.76 3.37
2 1 5.2 4.47 1.11
3 1 6.59 5.39 3.31
4 1 5.28 4.49 5.56
5 1 2.59 0.84 5.67
6 1 2.69 5.43 5.56
7 1 5.2 1.71 1.07
8 1 5.2 1.73 5.58
9 1 1.32 4.61 7.82
10 1 1.3 4.52 3.36
11 1 2.61 5.41 1.1
12 1 2.59 0.82 1.07
13 1 6.54 0.87 3.33
14 1 6.54 0.88 7.83
15 1 6.51 5.4 7.86
16 1 1.35 1.85 7.92
17 1 9.2 1.76 3.37
18 1 13.05 4.55 1.15
19 1 14.35 5.46 3.4
20 1 13.1 4.49 5.66
21 1 10.41 0.84 5.67
22 1 10.51 5.43 5.65
23 1 13.07 1.79 1.07
24 1 13.02 1.73 5.58
25 1 9.15 4.61 7.91
26 1 9.2 4.52 3.4
27 1 10.45 5.49 1.15
28 1 10.49 0.82 1.12
29 1 14.36 0.87 3.33
30 1 14.36 0.88 7.83
31 1 14.36 5.48 7.9
32 1 9.17 1.85 7.92
33 1 1.3 9.11 3.32
34 1 5.3 11.9 1.11
35 1 6.53 12.81 3.4
36 1 5.2 11.84 5.61
37 1 2.59 8.19 5.58
38 1 2.61 12.79 5.61
39 1 5.25 9.14 1.16
40 1 5.2 9.08 5.67
41 1 1.32 11.96 7.91
42 1 1.38 11.87 3.31
43 1 2.69 12.77 1.06
44 1 2.67 8.17 1.12
45 1 6.49 8.14 3.42
46 1 6.49 8.16 7.92
47 1 6.53 12.83 7.81
48 1 1.35 9.21 7.83
49 1 9.09 9.19 3.37
50 1 13.13 11.9 1.11
51 1 14.44 12.82 3.35
52 1 13.1 11.84 5.56
53 1 10.41 8.19 5.58
54 1 10.51 12.79 5.65
55 1 12.99 9.14 1.12
56 1 13.02 9.08 5.67
57 1 9.12 11.89 7.86
58 1 9.15 11.95 3.4
59 1 10.51 12.77 1.15
60 1 10.38 8.25 1.12
61 1 14.29 8.22 3.37
62 1 14.36 8.24 7.92
63 1 14.36 12.83 7.81
64 1 9.12 9.13 7.83
65 1 1.35 1.83 12.45
66 1 5.2 4.47 10.14
67 1 6.59 5.39 12.34
68 1 5.3 4.56 14.65
69 1 2.67 0.84 14.66
70 1 2.69 5.43 14.6
71 1 5.28 1.71 10.15
72 1 5.25 1.81 14.61
73 1 1.32 4.61 16.85
74 1 1.32 4.59 12.35
75 1 2.63 5.49 10.09
76 1 2.64 0.89 10.2
77 1 6.57 0.79 12.41
78 1 6.54 0.88 16.87
79 1 6.53 5.48 16.94
80 1 1.35 1.85 16.86
81 1 9.2 1.76 12.41
82 1 13.02 4.47 10.14
83 1 14.35 5.46 12.34
84 1 13.05 4.57 14.6
85 1 10.46 0.91 14.71
86 1 10.46 5.51 14.69
87 1 13.1 1.71 10.15
88 1 13.07 1.81 14.61
89 1 9.15 4.61 16.94
90 1 9.2 4.52 12.44
91 1 10.45 5.49 10.18
92 1 10.49 0.82 10.16
93 1 14.39 0.79 12.41
94 1 14.36 0.88 16.87
95 1 14.33 5.4 16.89
96 1 9.17 1.85 16.96
97 1 1.3 9.11 12.45
98 1 5.28 11.83 10.1
99 1 6.59 12.74 12.34
100 1 5.3 11.92 14.65
101 1 2.59 8.19 14.71
102 1 2.69 12.79 14.6
103 1 5.2 9.07 10.2
104 1 5.17 9.16 14.66
105 1 1.38 11.89 16.85
106 1 1.38 11.87 12.35
107 1 2.71 12.84 10.14
108 1 2.56 8.25 10.16
109 1 6.49 8.14 12.46
110 1 6.46 8.24 16.91
111 1 6.61 12.83 16.89
112 1 1.3 9.13 16.96
113 1 9.09 9.19 12.41
114 1 13.13 11.9 10.14
115 1 14.41 12.74 12.44
116 1 13.1 11.84 14.69
117 1 10.38 8.27 14.66
118 1 10.53 12.86 14.64
119 1 12.99 9.14 10.15
120 1 13.02 9.08 14.7
121 1 9.23 11.96 16.9
122 1 9.23 11.95 12.39
123 1 10.51 12.77 10.09
124 1 10.38 8.25 10.16
125 1 14.29 8.22 12.41
126 1 14.31 8.16 16.96
127 1 14.44 12.83 16.89
128 1 9.09 9.21 16.91
129 2 0.46 1.48 3.37
130 2 1.33 2.71 3.37
131 2 5.68 4.81 1.86
132 2 5.67 4.81 0.35
133 2 6.13 5.1 4.1
134 2 6.56 6.34 3.34
135 2 4.38 4.84 5.6
136 2 5.7 4.83 6.36
137 2 2.17 1.18 4.88
138 2 3.49 1.17 5.63
139 2 2.23 5.15 6.35
140 2 2.65 6.39 5.59
141 2 5.65 1.43 1.86
142 2 5.23 2.67 1.1
143 2 5.23 2.69 5.61
144 2 5.65 1.45 6.37
145 2 1.78 4.88 8.61
146 2 1.33 3.65 7.85
147 2 1.78 4.85 4.11
148 2 1.78 4.85 2.6
149 2 3.52 5.14 1.1
150 2 2.64 6.37 1.11
151 2 3.49 1.15 1.11
152 2 2.17 1.16 1.87
153 2 6.09 1.14 4.12
154 2 6.53 14.6171 3.37
155 2 6.09 1.15 8.63
156 2 6.53 14.6371 7.86
157 2 7.43 5.14 7.86
158 2 6.53 6.36 7.86
159 2 1.77 1.51 7.13
160 2 0.46 1.51 7.89
161 2 9.16 2.71 3.37
162 2 8.28 1.48 3.37
163 2 13.06 3.59 1.12
164 2 13.5 4.82 0.36
165 2 13.94 5.12 2.61
166 2 15.25 5.14 3.36
167 2 13.52 4.82 4.86
168 2 12.21 4.84 5.62
169 2 11.31 1.17 5.63
170 2 10 1.18 4.88
171 2 10.47 6.39 5.62
172 2 10.05 5.15 4.86
173 2 12.18 1.46 1.11
174 2 13.49 1.45 1.86
175 2 13.05 2.69 5.61
176 2 13.48 1.45 6.37
177 2 9.61 4.88 7.11
178 2 9.16 3.65 7.88
179 2 8.3 4.84 3.36
180 2 9.61 4.85 2.61
181 2 10.04 5.17 0.35
182 2 11.35 5.14 1.11
183 2 10.02 1.16 0.36
184 2 10.02 1.16 1.88
185 2 13.91 1.14 4.12
186 2 14.35 14.6171 3.37
187 2 13.91 1.15 8.63
188 2 14.36 14.6371 7.86
189 2 13.94 5.14 7.11
190 2 15.26 5.16 7.86
191 2 8.28 1.51 7.89
192 2 9.59 1.51 7.13
193 2 1.75 8.83 4.12
194 2 1.33 10.07 3.36
195 2 4.39 12.19 1.1
196 2 5.25 10.94 1.11
197 2 7.43 12.49 3.36
198 2 6.12 12.48 2.61
199 2 5.68 12.17 4.85
200 2 5.68 12.18 6.37
201 2 2.17 8.54 6.37
202 2 3.49 8.52 5.61
203 2 2.64 13.74 5.61
204 2 3.52 12.51 5.61
205 2 4.35 8.81 1.13
206 2 5.66 8.81 0.36
207 2 5.23 10.04 5.63
208 2 5.65 8.8 4.88
209 2 1.78 12.24 7.11
210 2 1.34 11.01 7.88
211 2 0.48 12.2 3.35
212 2 1.79 12.21 4.11
213 2 2.23 12.49 1.85
214 2 2.65 13.72 1.09
215 2 2.19 8.52 1.88
216 2 2.2 8.52 0.36
217 2 7.38 8.49 3.39
218 2 6.07 8.48 2.63
219 2 6.07 8.5 7.13
220 2 7.38 8.51 7.89
221 2 6.12 12.49 8.61
222 2 7.43 12.51 7.85
223 2 0.46 8.86 7.86
224 2 1.77 8.86 8.62
225 2 9.57 8.85 4.13
226 2 9.57 8.84 2.61
227 2 12.21 12.19 1.1
228 2 13.08 10.94 1.11
229 2 13.95 12.48 2.6
230 2 13.95 12.48 4.11
231 2 13.52 12.18 6.36
232 2 12.21 12.19 5.6
233 2 11.31 8.52 5.61
234 2 10 8.54 6.37
235 2 10.47 13.74 5.62
236 2 10.05 12.51 4.86
237 2 13.47 8.8 1.87
238 2 13.47 8.81 0.36
239 2 13.48 8.8 4.88
240 2 13.05 10.04 5.63
241 2 9.6 12.22 8.62
242 2 9.6 12.22 7.11
243 2 9.16 10.99 3.37
244 2 9.61 12.22 2.61
245 2 10.48 13.72 1.13
246 2 10.05 12.49 0.35
247 2 11.3 8.53 1.12
248 2 10.43 7.29 1.11
249 2 15.2 8.51 3.37
250 2 14.34 7.26 3.37
251 2 14.36 7.28 7.88
252 2 13.91 8.52 7.13
253 2 15.26 12.51 7.85
254 2 13.94 12.49 8.61
255 2 9.15 10.09 7.86
256 2 9.57 8.85 8.62
257 2 1.77 1.49 11.66
258 2 0.46 1.49 12.42
259 2 5.68 4.81 10.9
260 2 5.67 4.81 9.38
261 2 6.56 6.34 12.38
262 2 6.13 5.1 13.14
263 2 4.39 4.85 14.65
264 2 5.25 3.61 14.65
265 2 2.19 1.18 13.9
266 2 2.19 1.18 15.42
267 2 2.23 5.15 15.39
268 2 2.65 6.39 14.63
269 2 4.36 1.44 10.15
270 2 5.24 2.67 10.15
271 2 4.35 1.48 14.65
272 2 5.66 1.47 15.41
273 2 1.78 4.88 17.65
274 2 1.33 3.65 16.89
275 2 1.78 4.87 13.14
276 2 1.34 3.64 12.39
277 2 2.21 5.16 10.89
278 2 3.52 5.14 10.13
279 2 2.19 1.18 9.41
280 2 2.63 14.6471 10.16
281 2 6.09 1.13 11.65
282 2 6.09 1.14 13.17
283 2 6.53 14.6371 16.9
284 2 6.09 1.15 17.67
285 2 7.43 5.16 16.9
286 2 6.12 5.14 16.15
287 2 0.46 1.51 16.89
288 2 1.77 1.51 17.66
289 2 8.28 1.48 12.41
290 2 9.16 2.71 12.4
291 2 13.5 4.81 9.38
292 2 13.5 4.81 10.9
293 2 15.25 5.14 12.39
294 2 13.94 5.13 13.14
295 2 13.51 4.84 15.39
296 2 13.06 3.61 14.64
297 2 10.46 14.6671 14.67
298 2 10.01 1.19 13.91
299 2 11.35 5.16 14.65
300 2 10.04 5.17 13.9
301 2 13.07 2.67 10.15
302 2 12.18 1.44 10.15
303 2 13.49 1.47 15.41
304 2 12.18 1.48 14.65
305 2 9.16 3.65 16.91
306 2 9.61 4.88 16.15
307 2 9.61 4.85 11.64
308 2 8.3 4.84 12.4
309 2 10.04 5.17 9.39
310 2 11.35 5.14 10.15
311 2 10.02 1.16 10.91
312 2 10.02 1.16 9.4
313 2 13.92 1.13 11.65
314 2 13.92 1.14 13.17
315 2 13.91 1.15 17.67
316 2 14.36 14.6371 16.9
317 2 14.36 6.36 16.9
318 2 15.25 5.14 16.9
319 2 8.28 1.51 16.93
320 2 9.59 1.51 16.17
321 2 1.75 8.83 11.66
322 2 1.33 10.07 12.41
323 2 5.7 12.16 10.89
324 2 4.38 12.17 10.13
325 2 6.13 12.46 13.14
326 2 6.56 13.7 12.38
327 2 4.39 12.21 14.65
328 2 5.25 10.96 14.65
329 2 3.49 8.52 14.67
330 2 2.17 8.53 13.91
331 2 2.65 13.74 14.63
332 2 2.23 12.5 15.39
333 2 5.22 10.02 10.17
334 2 5.65 8.79 9.4
335 2 5.65 8.81 13.9
336 2 5.65 8.82 15.42
337 2 0.48 12.22 16.89
338 2 1.79 12.22 17.65
339 2 0.48 12.2 12.39
340 2 1.79 12.21 13.14
341 2 2.23 12.52 9.38
342 2 2.23 12.51 10.89
343 2 2.61 7.29 10.15
344 2 3.48 8.53 10.16
345 2 7.38 8.49 12.42
346 2 6.07 8.48 11.66
347 2 6.52 7.28 16.91
348 2 7.37 8.53 16.91
349 2 6.14 12.5 17.65
350 2 6.13 12.5 16.14
351 2 1.75 8.84 16.16
352 2 1.33 10.09 16.92
353 2 9.57 8.85 13.16
354 2 9.57 8.84 11.65
355 2 13.08 10.94 10.15
356 2 12.21 12.19 10.14
357 2 14.37 13.7 12.41
358 2 13.95 12.46 11.65
359 2 12.21 12.19 14.66
360 2 13.52 12.17 13.9
361 2 11.3 8.55 14.66
362 2 10.43 7.31 14.66
363 2 10.05 12.53 15.4
364 2 10.05 12.52 13.89
365 2 13.47 8.81 9.39
366 2 13.47 8.8 10.91
367 2 13.48 8.8 13.91
368 2 13.05 10.04 14.67
369 2 9.19 11.01 16.9
370 2 8.31 12.24 16.9
371 2 8.31 12.22 12.39
372 2 9.19 10.99 12.4
373 2 10.48 13.72 10.13
374 2 10.05 12.49 10.88
375 2 10.43 7.29 10.15
376 2 11.3 8.53 10.16
377 2 15.2 8.51 12.41
378 2 14.34 7.26 12.4
379 2 15.2 8.51 16.93
380 2 13.89 8.5 16.17
381 2 13.96 12.5 17.65
382 2 13.95 12.5 16.14
383 2 9.57 8.86 16.15
384 2 9.56 8.86 17.67
ITEM: TIMESTEP
200
ITEM: NUMBER OF ATOMS
384
ITEM: BOX BOUNDS pp pp pp
2.4136573719089505e-01 1.5404311792809107e+01
2.3499875751976607e-01 1.4472146532480238e+01
3.2049711169290340e-01 1.7752539918307097e+01
ITEM: ATOMS id type x y z
1 1 1.31754 1.7004 3.30379
2 1 5.04336 4.43894 1.03556
3 1 6.34702 5.29785 3.26615
4 1 5.00506 4.32634 5.40844
5 1 2.54005 0.699506 5.37671
6 1 2.46829 5.28395 5.50955
7 1 5.01705 1.74151 1.07247
8 1 5.10957 1.59736 5.48675
9 1 1.30127 4.39555 7.60518
10 1 1.29441 4.36144 3.24811
11 1 2.56768 5.21475 1.17843
12 1 2.50788 0.830834 1.10668
13 1 6.189 0.851888 3.25695
14 1 6.27406 0.689276 7.6428
15 1 6.30378 5.21871 7.60083
16 1 1.36215 1.70319 7.53763
17 1 8.8224 1.8066 3.27673
18 1 12.6304 4.3589 1.01056
19 1 13.9263 5.22725 3.20036
20 1 12.6998 4.4026 5.48007
21 1 10.1381 0.893677 5.33515
22 1 10.1997 5.27033 5.46982
23 1 12.7883 1.69194 1.01731
24 1 12.7297 1.76092 5.29088
25 1 8.89486 4.26351 7.6399
26 1 8.88014 4.46042 3.2137
27 1 10.104 5.36114 1.02939
28 1 10.1401 0.934163 1.09614
29 1 13.8991 0.792142 3.12808
30 1 13.9719 0.829066 7.59209
31 1 14.0261 5.22737 7.64074
32 1 8.82676 1.7142 7.52312
33 1 1.28663 8.78969 3.26702
34 1 5.0782 11.4824 1.14393
35 1 6.3141 12.3786 3.28443
36 1 5.00807 11.4967 5.38452
37 1 2.51151 7.95355 5.39426
38 1 2.52417 12.3236 5.33844
39 1 5.02924 8.81125 1.04373
40 1 5.11407 8.89588 5.43132
41 1 1.31375 11.5407 7.50986
42 1 1.33551 11.3939 3.13356
43 1 2.63369 12.3713 0.990501
44 1 2.57193 7.90711 1.03175
45 1 6.29972 7.99227 3.32035
46 1 6.29454 7.91156 7.5856
47 1 6.2696 12.3624 7.56016
48 1 1.29023 8.90936 7.69134
49 1 8.8305 8.81245 3.29169
50 1 12.7387 11.4371 1.00221
51 1 13.9396 12.2869 3.19438
52 1 12.6838 11.6243 5.39955
53 1 10.1131 7.87787 5.39368
54 1 10.1 12.3804 5.41169
55 1 12.6247 8.74095 1.11186
56 1 12.572 8.83036 5.33285
57 1 8.81115 11.4042 7.49586
58 1 8.83354 11.4726 3.16483
59 1 10.1569 12.4728 1.09996
60 1 10.0456 8.00417 1.15932
61 1 14.0051 8.01389 3.252
62 1 13.8476 7.93367 7.5852
63 1 14.0118 12.4879 7.62777
64 1 8.8433 8.82469 7.58726
65 1 1.2793 1.74413 11.9994
66 1 5.11331 4.38532 9.79629
67 1 6.31049 5.35977 11.9244
68 1 5.0522 4.38515 14.0997
69 1 2.59941 0.847736 14.2501
70 1 2.62212 5.23532 14.0979
71 1 5.144 1.73919 9.83851
72 1 5.12659 1.6311 14.208
73 1 1.26537 4.41713 16.3275
74 1 1.46617 4.46551 11.9886
75 1 2.61525 5.21551 9.68785
76 1 2.57092 0.902001 9.82268
77 1 6.3419 0.861981 12.0114
78 1 6.43679 0.784169 16.3801
79 1 6.36555 5.35158 16.25
80 1 1.29407 1.75269 16.3411
81 1 8.85703 1.68659 12.0122
82 1 12.7064 4.36565 9.79754
83 1 13.9951 5.31574 11.9326
84 1 12.6931 4.41594 14.1135
85 1 10.1196 0.885455 14.2103
86 1 10.068 5.21159 14.0918
87 1 12.6636 1.77081 9.77064
88 1 12.7435 1.71396 14.202
89 1 8.78938 4.39611 16.3063
90 1 8.83713 4.38471 11.835
91 1 10.1908 5.22232 9.66658
92 1 10.1154 0.92908 9.77624
93 1 13.9146 0.835307 11.8962
94 1 13.989 0.787949 16.3084
95 1 13.8609 5.30263 16.2292
96 1 8.8987 1.82774 16.3168
97 1 1.17011 8.78388 11.9395
98 1 5.11014 11.5882 9.75451
99 1 6.37712 12.3717 11.9912
100 1 5.08322 11.5042 14.2054
101 1 2.53238 8.00384 14.2231
102 1 2.60031 12.4091 14.0778
103 1 5.05976 8.90884 9.71442
104 1 5.04021 8.78333 14.1923
105 1 1.3606 11.4898 16.2167
106 1 1.31572 11.533 12.0407
107 1 2.57519 12.4437 9.85828
108 1 2.5565 7.922 9.74568
109 1 6.1936 8.01856 11.9919
110 1 6.28168 8.00198 16.3382
111 1 6.34222 12.3523 16.3156
112 1 1.24982 8.83667 16.3625
113 1 8.8161 8.71905 11.9084
114 1 12.6436 11.568 9.8267
115 1 13.9467 12.3916 11.9845
116 1 12.728 11.5296 14.1516
117 1 9.9752 7.8889 14.2459
118 1 10.2671 12.425 14.1667
119 1 12.6411 8.9312 9.77159
120 1 12.639 8.85639 14.1711
121 1 8.91102 11.5831 16.2368
122 1 8.92934 11.4761 11.9492
123 1 10.1026 12.4116 9.7119
124 1 10.1469 7.92681 9.8182
125 1 13.7281 7.98415 11.949
126 1 13.9214 7.91261 16.3814
127 1 14.0398 12.3591 16.2849
128 1 8.80446 8.89165 16.3947
129 2 0.441111 1.30229 3.34602
130 2 0.985978 2.56777 3.23072
131 2 5.40754 4.75147 1.85933
132 2 5.60221 4.93778 0.344612
133 2 5.82955 4.94904 4.03253
134 2 6.16008 6.17783 3.20297
135 2 4.11035 4.72232 5.45078
136 2 5.5316 4.83403 6.22702
137 2 2.08478 1.10309 4.58866
138 2 3.59896 1.06171 5.43015
139 2 1.97562 5.06985 6.4503
140 2 2.36481 6.23583 5.43257
141 2 5.33922 1.51587 1.97029
142 2 4.96207 2.67097 1.31399
143 2 5.16591 2.69797 5.55292
144 2 5.40634 1.28266 6.43975
145 2 1.89725 4.53356 8.47547
146 2 1.23169 3.2985 7.57221
147 2 1.50766 4.69315 3.97169
148 2 1.80186 4.81226 2.57149
149 2 3.53145 5.06848 1.26895
150 2 2.39195 6.29375 1.1957
151 2 3.26387 1.26442 0.963837
152 2 2.04751 1.24891 1.95578
153 2 5.84124 1.14427 4.16778
154 2 6.21063 14.2145 3.36212
155 2 5.82508 0.954573 8.48319
156 2 6.27164 13.9289 7.71077
157 2 7.30094 4.97086 7.38506
158 2 6.18274 6.22091 7.42817
159 2 1.86691 1.20324 6.68406
160 2 0.448099 1.22436 7.70729
161 2 8.74074 2.89319 3.08821
162 2 8.0536 1.42655 3.19769
163 2 12.6994 3.32467 1.03424
164 2 13.1129 4.50934 17.6856
165 2 13.7523 4.8255 2.30231
166 2 14.7871 4.9726 3.25964
167 2 13.2375 4.71602 4.68095
168 2 11.7589 4.66219 5.41309
169 2 11.127 1.13299 5.22232
170 2 9.49896 1.2167 4.62471
171 2 9.97694 6.28533 5.59809
172 2 9.59625 4.98396 4.81552
173 2 11.8297 1.34614 1.11235
174 2 13.1644 1.32876 1.80705
175 2 12.7681 2.78417 5.26203
176 2 13.035 1.46026 6.1805
177 2 9.24086 4.61538 6.81444
178 2 8.85752 3.26033 7.76076
179 2 7.82102 4.98648 3.16981
180 2 9.46788 4.61915 2.49622
181 2 9.66463 4.99237 17.4932
182 2 10.9438 4.89573 0.995659
183 2 9.69321 1.13671 0.348672
184 2 9.84242 1.41415 1.87879
185 2 13.5496 1.19413 4.07351
186 2 13.8076 13.8552 3.17205
187 2 13.4982 1.16049 8.4733
188 2 13.8507 13.9612 7.70505
189 2 13.6669 4.72395 6.88935
190 2 14.9335 5.04385 7.62608
191 2 8.18541 1.27629 7.58117
192 2 9.41678 1.29736 6.80273
193 2 1.75706 8.45568 4.06258
194 2 1.40516 9.82814 3.11145
195 2 4.07324 11.7629 1.25636
196 2 5.02595 10.4913 1.20237
197 2 7.23339 12.0035 3.14123
198 2 5.94284 12.0533 2.46971
199 2 5.57166 11.8175 4.61917
200 2 5.54459 12.0173 6.08112
201 2 1.98028 8.40463 6.36275
202 2 3.64298 8.41448 5.20543
203 2 2.51655 13.3225 5.43396
204 2 3.65831 11.8842 5.32791
205 2 4.05464 8.53015 0.945146
206 2 5.49834 8.19684 0.410212
207 2 4.99451 9.8903 5.3426
208 2 5.76667 8.43815 4.59597
209 2 1.70137 11.82 6.74372
210 2 1.23394 10.5153 7.59137
211 2 0.272638 11.6507 2.99374
212 2 1.74704 11.587 3.94862
213 2 2.23082 11.9539 1.77998
214 2 2.60161 13.4061 1.07113
215 2 2.23626 8.27513 2.01285
216 2 2.04108 8.41818 17.7157
217 2 7.21931 8.30633 3.46001
218 2 5.93056 8.47735 2.55084
219 2 5.82284 8.17781 6.71865
220 2 7.1768 8.41826 7.57134
221 2 5.88084 11.9848 8.36495
222 2 7.20135 11.9731 7.50316
223 2 0.43519 8.20465 7.78454
224 2 1.8375 8.27977 8.38438
225 2 9.36363 8.61809 4.14331
226 2 9.24803 8.60539 2.33312
227 2 11.8093 11.9853 1.09585
228 2 12.5749 10.5265 0.964838
229 2 13.6194 11.8883 2.35769
230 2 13.4929 11.8901 4.07146
231 2 13.393 12.0416 6.25892
232 2 11.8316 11.9681 5.53564
233 2 11.2187 8.21239 5.27923
234 2 9.61879 8.43582 6.12287
235 2 10.0615 13.3753 5.49324
236 2 9.95646 12.0876 4.54722
237 2 13.1732 8.6257 1.8992
238 2 13.1798 8.31194 17.6903
239 2 13.1151 8.60066 4.55809
240 2 12.6126 9.85176 5.40141
241 2 9.29571 11.9087 8.29145
242 2 9.24899 12.0094 6.52407
243 2 8.80823 10.4471 3.19584
244 2 9.23463 12.0524 2.4665
245 2 10.0726 13.3115 0.996085
246 2 9.728 11.9577 0.369315
247 2 11.059 8.19189 1.01016
248 2 9.90402 7.01518 1.08521
249 2 14.9416 8.40225 3.28393
250 2 14.0599 6.90229 3.16054
251 2 13.8764 6.90888 7.49701
252 2 13.4725 8.01791 6.6853
253 2 14.9652 12.0399 7.60858
254 2 13.4678 12.2338 8.3113
255 2 8.95354 9.70649 7.43469
256 2 9.27002 8.65383 8.46652
257 2 1.84134 1.37729 11.0931
258 2 0.328498 1.26552 12.0548
259 2 5.46498 5.04977 10.551
260 2 5.63808 4.68936 8.89087
261 2 6.30923 6.30641 12.0067
262 2 5.71368 5.18583 12.8438
263 2 4.00458 4.65048 14.039
264 2 5.25183 3.3854 13.9234
265 2 2.0754 1.20279 13.5892
266 2 2.03747 1.14381 15.0013
267 2 2.14292 4.90776 14.8383
268 2 2.66135 6.26651 14.2152
269 2 4.12697 1.54924 10.0514
270 2 5.08862 2.6815 9.79272
271 2 4.19137 1.39402 14.2517
272 2 5.49299 1.39293 15.0627
273 2 1.74812 4.52423 17.0003
274 2 1.45686 3.43989 16.2597
275 2 1.9483 4.74737 12.795
276 2 1.25111 3.21522 12.0041
277 2 2.06194 4.93904 10.5239
278 2 3.58736 4.79452 9.6699
279 2 2.05248 1.01137 8.88157
280 2 2.49057 14.2623 9.91618
281 2 5.7937 1.19068 11.1899
282 2 5.80855 1.15059 12.7123
283 2 6.39818 14.0472 16.5458
284 2 5.9158 1.0086 17.0504
285 2 7.28559 4.90816 16.4391
286 2 5.88611 4.87756 15.3989
287 2 0.316344 1.55419 16.3864
288 2 1.77661 1.36778 17.2465
289 2 7.77952 1.59557 11.9446
290 2 8.91608 2.62011 12.0424
291 2 13.2566 4.59822 8.91817
292 2 13.0626 4.86703 10.5433
293 2 14.9269 4.91551 11.9182
294 2 13.4262 4.88151 12.7406
295 2 13.1364 4.61383 15.0152
296 2 12.7769 3.49234 14.0993
297 2 10.2571 14.0924 14.2141
298 2 9.63831 0.986845 13.3504
299 2 11.0146 5.15055 14.0215
300 2 9.64384 4.90394 13.1378
301 2 12.6679 2.74507 9.74346
302 2 11.6017 1.51346 9.78864
303 2 13.1201 1.44376 15.1553
304 2 11.8488 1.35035 14.2448
305 2 8.95242 3.35358 16.2888
306 2 9.36261 4.70388 15.6112
307 2 9.16841 4.78667 11.0195
308 2 7.88711 4.68541 11.836
309 2 9.80835 4.88657 8.84354
310 2 11.115 4.84082 9.75099
311 2 9.57595 1.10384 10.5911
312 2 9.74008 1.26011 8.90344
313 2 13.264 1.28146 11.0464
314 2 13.3921 0.993801 12.825
315 2 13.4509 1.01871 17.1318
316 2 14.2313 14.2109 16.11
317 2 13.8985 6.21055 16.1915
318 2 14.8995 5.09985 16.2389
319 2 8.00578 1.40562 16.3101
320 2 9.42694 1.42584 15.5079
321 2 1.69254 8.26413 11.1613
322 2 1.32643 9.91721 11.9076
323 2 5.68078 11.7409 10.6128
324 2 4.25243 12.1435 9.9188
325 2 5.66982 11.8866 12.7289
326 2 6.31206 13.2736 11.9394
327 2 4.20174 11.9541 14.1038
328 2 5.14675 10.365 14.1641
329 2 3.32316 8.53486 14.3047
330 2 2.0433 8.35736 13.443
331 2 2.615 13.515 13.9499
332 2 2.02279 12.301 14.8443
333 2 5.17579 9.88209 9.59104
334 2 5.49085 8.52735 9.10935
335 2 5.58217 8.53189 13.3281
336 2 5.75732 8.42482 14.8404
337 2 0.480577 11.8169 16.157
338 2 1.90675 11.71 16.9367
339 2 0.413956 11.8207 11.9807
340 2 1.71609 11.9994 12.7235
341 2 1.96039 11.8542 9.09624
342 2 2.04265 12.3864 10.5902
343 2 2.61816 6.93759 9.61921
344 2 3.47092 8.25585 9.77317
345 2 7.06791 8.56124 11.983
346 2 5.81418 8.42648 11.1236
347 2 6.2993 7.14535 16.2884
348 2 7.27952 8.32298 16.4543
349 2 5.88453 12.0035 17.083
350 2 5.89572 12.1479 15.6439
351 2 1.70442 8.64339 15.456
352 2 1.31913 9.91677 16.2927
353 2 9.12819 8.3561 12.803
354 2 9.18822 8.28143 11.3133
355 2 12.6444 10.5245 9.69256
356 2 11.5922 11.7832 9.89636
357 2 13.9549 13.4154 11.9446
358 2 13.4195 12.2073 10.9612
359 2 11.8232 11.8937 14.0419
360 2 12.9958 11.9298 13.1827
361 2 10.943 8.24679 14.1433
362 2 9.98645 6.93297 14.144
363 2 9.8289 12.2998 14.9572
364 2 9.75024 12.1002 13.4167
365 2 12.9008 8.40628 8.90679
366 2 13.344 8.40019 10.5548
367 2 12.9688 8.5647 13.2107
368 2 12.5932 9.98081 14.1357
369 2 9.12842 10.5871 16.4923
370 2 7.9252 11.7989 16.2275
371 2 8.07369 11.9744 11.9497
372 2 8.87624 10.5191 12.0228
373 2 10.1215 13.3871 9.64059
374 2 9.62812 12.2219 10.5622
375 2 10.2214 6.9942 9.74153
376 2 11.035 8.17093 9.70205
377 2 14.8508 8.27228 11.8888
378 2 13.8522 6.97233 12.0493
379 2 14.7874 8.32007 16.3003
380 2 13.5205 8.36868 15.5448
381 2 13.5911 11.8683 16.9259
382 2 13.5644 12.157 15.5053
383 2 9.17805 8.4557 15.5275
384 2 9.30384 8.53259 17.1925
ITEM: TIMESTEP
400
ITEM: NUMBER OF ATOMS
384
ITEM: BOX BOUNDS pp pp pp
4.6654049692420863e-01 1.5179137033075790e+01
4.3348055518130035e-01 1.4273664734818711e+01
6.2313843955395143e-01 1.7449898590446061e+01
ITEM: ATOMS id type x y z
1 1 1.41251 1.63737 3.2933
2 1 5.0578 4.41363 1.10135
3 1 6.15803 5.13831 3.22975
4 1 4.83667 4.22331 5.16693
5 1 2.52731 0.581512 5.34761
6 1 2.43802 5.14174 5.29207
7 1 4.87162 1.79946 1.17499
8 1 4.9501 1.61142 5.21152
9 1 1.17938 4.31243 7.44018
10 1 1.17491 4.28544 3.05668
11 1 2.52398 5.113 1.0414
12 1 2.48116 0.945951 1.07927
13 1 6.12138 0.789395 3.18094
14 1 6.28668 0.756977 7.31642
15 1 6.12597 5.12121 7.21616
16 1 1.47443 1.74611 7.31178
17 1 8.54545 1.78787 3.15639
18 1 12.2793 4.19011 0.834564
19 1 13.4189 4.98864 2.95011
20 1 12.2346 4.1216 5.12819
21 1 9.9522 0.696918 5.08183
22 1 9.86282 5.07464 5.19404
23 1 12.318 1.58255 1.02298
24 1 12.4233 1.52681 5.24803
25 1 8.64798 4.15856 7.3105
26 1 8.55759 4.38667 2.99858
27 1 9.83733 5.1774 0.895082
28 1 9.75989 0.932815 1.12289
29 1 13.6369 0.917649 3.09336
30 1 13.5671 0.855408 7.50502
31 1 13.5254 5.20982 7.12883
32 1 8.79019 1.51628 7.34385
33 1 1.24856 8.57205 3.19132
34 1 4.9653 11.1642 1.07914
35 1 6.22572 12.0672 3.06533
36 1 4.94402 11.2364 5.10021
37 1 2.46976 7.77353 5.39148
38 1 2.37716 11.8484 5.23443
39 1 4.85139 8.61633 1.03662
40 1 4.86528 8.58995 5.11199
41 1 1.19621 11.1634 7.34302
42 1 1.21523 11.1781 3.11825
43 1 2.5998 12.2279 1.02787
44 1 2.42885 7.59395 0.998445
45 1 6.29206 7.75293 3.04298
46 1 6.14341 7.75712 7.27023
47 1 6.01224 11.9847 7.324
48 1 1.15397 8.46671 7.298
49 1 8.66425 8.59092 3.00452
50 1 12.3009 11.164 1.02648
51 1 13.4564 12.2414 3.16116
52 1 12.3584 11.3581 5.2993
53 1 9.86273 7.63673 5.23188
54 1 9.77217 12.014 5.32149
55 1 12.3866 8.61085 1.11594
56 1 12.2319 8.73229 5.09513
57 1 8.47616 11.1843 7.31056
58 1 8.71771 11.1943 3.06066
59 1 9.9465 12.1701 1.04514
60 1 9.8828 7.789 1.01014
61 1 13.6281 7.65625 3.10141
62 1 13.3943 7.80634 7.20743
63 1 13.4788 12.1096 7.52535
64 1 8.53147 8.61528 7.27878
65 1 1.4429 1.64581 11.5782
66 1 4.91279 4.23703 9.38615
67 1 6.16522 5.25666 11.584
68 1 5.02439 4.43495 13.6513
69 1 2.53718 0.803139 13.6853
70 1 2.46727 5.20887 13.7185
71 1 4.99605 1.62979 9.67137
72 1 4.98922 1.93905 13.7499
73 1 1.14027 4.36456 15.7075
74 1 1.35122 4.1838 11.678
75 1 2.50904 5.16594 9.61282
76 1 2.57585 0.755259 9.5055
77 1 6.19405 0.767589 11.7321
78 1 6.18056 0.794276 15.8845
79 1 6.24907 5.14556 15.7994
80 1 1.18139 1.63427 15.736
81 1 8.52286 1.73838 11.5343
82 1 12.4329 4.31193 9.43132
83 1 13.5983 5.13058 11.6135
84 1 12.202 4.16632 13.6259
85 1 9.73859 0.798016 13.5445
86 1 9.80086 4.96498 13.4308
87 1 12.2149 1.71532 9.59698
88 1 12.2797 1.5204 13.6853
89 1 8.71261 4.12156 15.6997
90 1 8.49638 4.26266 11.329
91 1 9.92855 5.21055 9.25591
92 1 9.91247 0.783154 9.51112
93 1 13.644 0.963283 11.5507
94 1 13.6194 0.587788 15.8379
95 1 13.4881 5.16905 15.5602
96 1 8.62105 1.63828 15.6958
97 1 1.17859 8.70903 11.5138
98 1 4.86586 11.2406 9.47243
99 1 6.18177 12.0022 11.608
100 1 4.87224 11.2325 13.7211
101 1 2.36644 7.68217 13.6482
102 1 2.43541 11.9997 13.6169
103 1 4.69566 8.63686 9.44182
104 1 4.75235 8.72081 13.6853
105 1 1.29692 11.0842 15.8285
106 1 1.18776 11.3333 11.482
107 1 2.42677 12.0454 9.41386
108 1 2.32026 7.6848 9.45361
109 1 6.09229 7.89931 11.4987
110 1 6.17898 7.80542 15.7721
111 1 6.191 12.0219 15.7788
112 1 1.25968 8.58617 15.7668
113 1 8.61875 8.65974 11.5218
114 1 12.1954 11.2225 9.4762
115 1 13.4129 12.1997 11.4637
116 1 12.0977 11.2743 13.5418
117 1 9.8039 7.60482 13.7119
118 1 9.73658 12.0647 13.4929
119 1 12.2399 8.55132 9.44627
120 1 12.2076 8.61854 13.5682
121 1 8.70828 11.3692 15.8366
122 1 8.52606 11.1065 11.4923
123 1 9.77349 11.9443 9.4446
124 1 9.8065 7.70921 9.41569
125 1 13.5391 7.686 11.5329
126 1 13.5143 7.74191 15.7213
127 1 13.5641 11.8798 15.7585
128 1 8.54366 8.66013 15.7262
129 2 0.504833 1.18089 3.23074
130 2 1.48531 2.55321 3.12018
131 2 5.28194 4.55655 1.92547
132 2 5.69139 4.62455 17.1007
133 2 5.62736 4.6949 4.04818
134 2 6.14429 6.37116 3.11359
135 2 3.74622 4.36853 5.05945
136 2 5.23648 4.67965 5.9492
137 2 2.15351 0.731972 4.43958
138 2 3.46259 1.01269 5.25857
139 2 1.78627 4.88275 6.03432
140 2 2.283 6.17793 5.16984
141 2 5.52514 1.47811 2.0599
142 2 5.12575 2.81331 1.0277
143 2 4.84423 2.52153 5.3006
144 2 5.397 1.2781 6.09581
145 2 1.75993 4.5625 8.20422
146 2 1.26872 3.31161 7.30478
147 2 1.65651 4.67725 3.84044
148 2 1.79159 4.60809 2.32598
149 2 3.50621 4.85696 0.968527
150 2 2.53683 6.04289 0.994129
151 2 3.52124 1.39307 1.20432
152 2 2.06559 1.34778 1.89923
153 2 5.42414 1.15647 4.13005
154 2 6.21236 13.5821 3.2634
155 2 6.01785 1.2307 8.14667
156 2 6.20067 13.6745 7.40147
157 2 6.9623 4.79664 7.12976
158 2 6.18187 6.11202 7.08123
159 2 1.67986 1.46086 6.46961
160 2 15.135 1.3168 7.26428
161 2 8.46732 2.73472 3.24693
162 2 7.44959 1.38012 3.00953
163 2 12.3287 3.11513 0.835098
164 2 12.7768 4.44511 16.7365
165 2 12.7411 4.76685 2.12925
166 2 14.3248 4.71189 2.91755
167 2 12.684 4.27678 4.34306
168 2 11.2751 4.43076 5.13224
169 2 10.9388 0.776141 5.14173
170 2 9.34525 1.18106 4.38928
171 2 9.82199 6.13712 5.37504
172 2 9.21437 4.83737 4.31271
173 2 11.3027 1.16803 0.912878
174 2 12.9268 1.35762 1.74979
175 2 12.5183 2.57824 5.37463
176 2 12.782 1.34951 6.12601
177 2 9.18848 4.53549 6.2468
178 2 8.6724 3.0977 7.52693
179 2 7.52308 4.74813 3.13376
180 2 9.06445 4.94943 2.25179
181 2 9.39512 4.77761 16.704
182 2 10.8196 4.93152 0.816143
183 2 9.31621 1.12811 17.1381
184 2 9.30378 1.44649 1.8148
185 2 13.0353 1.07542 3.95108
186 2 13.5513 13.5745 3.13249
187 2 13.2078 1.14886 8.35682
188 2 13.3994 13.6137 7.7515
189 2 13.2787 4.57786 6.46431
190 2 14.5841 5.13066 7.28891
191 2 7.80982 1.1535 7.26702
192 2 9.24746 1.45596 6.26573
193 2 1.74198 8.24106 3.99993
194 2 1.3722 9.45071 2.9675
195 2 3.99387 11.6172 0.927219
196 2 4.85123 10.1227 1.05395
197 2 7.06484 11.6984 3.1082
198 2 5.68344 11.7399 2.29781
199 2 5.43464 11.4932 4.29791
200 2 5.38859 11.412 5.89086
201 2 1.75803 8.08596 6.29425
202 2 3.31362 8.12041 5.49654
203 2 2.41742 12.8441 5.30886
204 2 3.42509 11.6414 5.25728
205 2 3.89979 8.22261 1.07566
206 2 5.312 8.25038 16.9642
207 2 5.07741 9.47549 5.26253
208 2 5.48479 8.29272 4.15768
209 2 1.57467 11.2863 6.4618
210 2 1.16659 10.1264 7.35431
211 2 15.1085 11.6774 3.45629
212 2 1.75998 11.5983 3.98376
213 2 2.0393 11.9082 1.84928
214 2 2.67715 13.2312 0.899171
215 2 1.96702 8.00891 1.88752
216 2 2.07099 8.07474 17.0084
217 2 7.29975 7.99806 3.21006
218 2 5.72146 7.89088 2.11083
219 2 5.73331 7.98392 6.50253
220 2 7.1929 8.18573 7.04535
221 2 5.68242 11.7908 8.38583
222 2 6.87167 11.5056 7.31905
223 2 15.0401 8.18202 7.53387
224 2 1.64668 8.23117 8.28125
225 2 9.04012 8.30231 3.89405
226 2 9.1682 8.04677 2.34222
227 2 11.3094 11.4597 1.07265
228 2 12.3746 10.085 1.2429
229 2 13.133 11.7972 2.30497
230 2 12.8934 11.9609 4.00048
231 2 12.8535 11.835 6.0224
232 2 11.3513 11.567 5.45916
233 2 10.8622 8.00382 5.18427
234 2 9.47422 8.19778 6.03116
235 2 9.86035 12.9295 5.17487
236 2 9.21504 11.7299 4.55046
237 2 13.0741 8.20201 2.09332
238 2 12.8463 8.19936 17.1302
239 2 12.7277 8.11669 4.36941
240 2 12.3025 9.71912 5.12107
241 2 9.07616 11.5506 8.04681
242 2 8.87233 11.5983 6.35682
243 2 8.82179 10.2564 3.07435
244 2 9.17905 11.4614 2.26678
245 2 9.93065 13.2095 1.1962
246 2 9.32778 11.9806 17.011
247 2 10.9462 8.00762 0.954803
248 2 9.87859 6.61695 1.04752
249 2 14.628 7.92919 3.38815
250 2 13.4667 6.67725 3.12092
251 2 13.3159 6.87255 7.27975
252 2 12.8899 8.02421 6.24998
253 2 14.5063 11.6841 7.45012
254 2 12.9426 11.579 8.26918
255 2 8.32748 9.57672 7.31028
256 2 8.96384 8.11818 8.24489
257 2 2.03325 1.21585 10.8803
258 2 15.0961 1.44451 11.4754
259 2 5.66221 4.72381 10.1416
260 2 5.46728 4.54615 8.40229
261 2 6.18389 6.39661 11.7279
262 2 5.79516 4.89253 12.338
263 2 3.93869 4.69311 13.7622
264 2 4.77691 3.48032 13.671
265 2 2.06502 0.877461 12.8542
266 2 1.88887 1.23066 14.3127
267 2 2.12977 4.89894 14.5186
268 2 2.503 6.38453 13.762
269 2 4.10815 1.24914 9.39366
270 2 4.95921 2.70824 9.5342
271 2 4.07733 1.3988 13.7117
272 2 5.43706 1.38257 14.5121
273 2 1.76638 4.59943 16.5894
274 2 1.25719 3.21957 15.7844
275 2 1.70469 4.37378 12.4304
276 2 1.40079 3.19818 11.7642
277 2 2.10676 4.76286 10.4725
278 2 3.43171 4.89515 9.7475
279 2 2.02419 1.17369 8.81895
280 2 2.37449 13.7417 9.45493
281 2 5.60494 1.01938 10.8177
282 2 5.72655 1.10926 12.625
283 2 5.95704 13.5855 15.8725
284 2 5.58684 1.11179 16.7493
285 2 7.04051 4.66035 15.7864
286 2 5.87262 4.66753 14.9358
287 2 14.8816 1.24007 15.6982
288 2 1.6139 1.22142 16.6442
289 2 7.54805 1.37782 11.6074
290 2 8.46932 2.89637 11.3828
291 2 12.9869 4.76623 8.63572
292 2 12.9446 4.60976 10.2987
293 2 14.6206 4.86773 11.551
294 2 13.1342 4.84202 12.3228
295 2 12.7834 4.59609 14.2
296 2 12.4992 3.21566 13.5374
297 2 9.61553 13.6224 13.5606
298 2 9.29038 1.13379 12.5514
299 2 10.6823 4.46916 13.4184
300 2 9.35677 4.72401 12.514
301 2 12.1369 2.6499 9.39769
302 2 11.3323 1.35198 9.3747
303 2 12.6376 1.2364 14.5847
304 2 11.2149 1.3492 13.4371
305 2 8.60749 3.06473 15.626
306 2 8.91799 4.39108 14.6893
307 2 9.07272 4.71371 10.5851
308 2 7.44422 4.74649 11.3871
309 2 9.46608 4.82705 8.64182
310 2 10.8998 4.96826 9.31863
311 2 9.31313 1.18587 10.2596
312 2 9.6486 1.09437 8.70487
313 2 13.0912 1.32811 10.8395
314 2 13.1093 1.42395 12.2281
315 2 13.1881 1.06957 16.6742
316 2 13.4307 13.4191 15.8762
317 2 13.5463 6.05376 15.3569
318 2 14.6043 4.749 15.623
319 2 7.40447 1.37294 15.8743
320 2 9.14701 1.16591 14.9036
321 2 1.51042 8.45975 10.7331
322 2 1.12132 9.63539 11.547
323 2 5.3719 11.4892 10.2761
324 2 3.94435 11.5398 9.51251
325 2 5.47812 11.724 12.3364
326 2 6.27151 12.9464 11.7346
327 2 3.91863 11.4363 13.8133
328 2 4.93398 10.1464 13.7231
329 2 3.25312 8.01745 13.5535