ITEM: TIMESTEP
0
ITEM: NUMBER OF ATOMS
384
ITEM: BOX BOUNDS pp pp pp
0.0000000000000000e+00 1.5645677530000000e+01
0.0000000000000000e+00 1.4707145290000000e+01
0.0000000000000000e+00 1.8073037029999998e+01
ITEM: ATOMS id type x y z
1 1 1.38 1.76 3.37
2 1 5.2 4.47 1.11
3 1 6.59 5.39 3.31
4 1 5.28 4.49 5.56
5 1 2.59 0.84 5.67
6 1 2.69 5.43 5.56
7 1 5.2 1.71 1.07
8 1 5.2 1.73 5.58
9 1 1.32 4.61 7.82
10 1 1.3 4.52 3.36
11 1 2.61 5.41 1.1
12 1 2.59 0.82 1.07
13 1 6.54 0.87 3.33
14 1 6.54 0.88 7.83
15 1 6.51 5.4 7.86
16 1 1.35 1.85 7.92
17 1 9.2 1.76 3.37
18 1 13.05 4.55 1.15
19 1 14.35 5.46 3.4
20 1 13.1 4.49 5.66
21 1 10.41 0.84 5.67
22 1 10.51 5.43 5.65
23 1 13.07 1.79 1.07
24 1 13.02 1.73 5.58
25 1 9.15 4.61 7.91
26 1 9.2 4.52 3.4
27 1 10.45 5.49 1.15
28 1 10.49 0.82 1.12
29 1 14.36 0.87 3.33
30 1 14.36 0.88 7.83
31 1 14.36 5.48 7.9
32 1 9.17 1.85 7.92
33 1 1.3 9.11 3.32
34 1 5.3 11.9 1.11
35 1 6.53 12.81 3.4
36 1 5.2 11.84 5.61
37 1 2.59 8.19 5.58
38 1 2.61 12.79 5.61
39 1 5.25 9.14 1.16
40 1 5.2 9.08 5.67
41 1 1.32 11.96 7.91
42 1 1.38 11.87 3.31
43 1 2.69 12.77 1.06
44 1 2.67 8.17 1.12
45 1 6.49 8.14 3.42
46 1 6.49 8.16 7.92
47 1 6.53 12.83 7.81
48 1 1.35 9.21 7.83
49 1 9.09 9.19 3.37
50 1 13.13 11.9 1.11
51 1 14.44 12.82 3.35
52 1 13.1 11.84 5.56
53 1 10.41 8.19 5.58
54 1 10.51 12.79 5.65
55 1 12.99 9.14 1.12
56 1 13.02 9.08 5.67
57 1 9.12 11.89 7.86
58 1 9.15 11.95 3.4
59 1 10.51 12.77 1.15
60 1 10.38 8.25 1.12
61 1 14.29 8.22 3.37
62 1 14.36 8.24 7.92
63 1 14.36 12.83 7.81
64 1 9.12 9.13 7.83
65 1 1.35 1.83 12.45
66 1 5.2 4.47 10.14
67 1 6.59 5.39 12.34
68 1 5.3 4.56 14.65
69 1 2.67 0.84 14.66
70 1 2.69 5.43 14.6
71 1 5.28 1.71 10.15
72 1 5.25 1.81 14.61
73 1 1.32 4.61 16.85
74 1 1.32 4.59 12.35
75 1 2.63 5.49 10.09
76 1 2.64 0.89 10.2
77 1 6.57 0.79 12.41
78 1 6.54 0.88 16.87
79 1 6.53 5.48 16.94
80 1 1.35 1.85 16.86
81 1 9.2 1.76 12.41
82 1 13.02 4.47 10.14
83 1 14.35 5.46 12.34
84 1 13.05 4.57 14.6
85 1 10.46 0.91 14.71
86 1 10.46 5.51 14.69
87 1 13.1 1.71 10.15
88 1 13.07 1.81 14.61
89 1 9.15 4.61 16.94
90 1 9.2 4.52 12.44
91 1 10.45 5.49 10.18
92 1 10.49 0.82 10.16
93 1 14.39 0.79 12.41
94 1 14.36 0.88 16.87
95 1 14.33 5.4 16.89
96 1 9.17 1.85 16.96
97 1 1.3 9.11 12.45
98 1 5.28 11.83 10.1
99 1 6.59 12.74 12.34
100 1 5.3 11.92 14.65
101 1 2.59 8.19 14.71
102 1 2.69 12.79 14.6
103 1 5.2 9.07 10.2
104 1 5.17 9.16 14.66
105 1 1.38 11.89 16.85
106 1 1.38 11.87 12.35
107 1 2.71 12.84 10.14
108 1 2.56 8.25 10.16
109 1 6.49 8.14 12.46
110 1 6.46 8.24 16.91
111 1 6.61 12.83 16.89
112 1 1.3 9.13 16.96
113 1 9.09 9.19 12.41
114 1 13.13 11.9 10.14
115 1 14.41 12.74 12.44
116 1 13.1 11.84 14.69
117 1 10.38 8.27 14.66
118 1 10.53 12.86 14.64
119 1 12.99 9.14 10.15
120 1 13.02 9.08 14.7
121 1 9.23 11.96 16.9
122 1 9.23 11.95 12.39
123 1 10.51 12.77 10.09
124 1 10.38 8.25 10.16
125 1 14.29 8.22 12.41
126 1 14.31 8.16 16.96
127 1 14.44 12.83 16.89
128 1 9.09 9.21 16.91
129 2 0.46 1.48 3.37
130 2 1.33 2.71 3.37
131 2 5.68 4.81 1.86
132 2 5.67 4.81 0.35
133 2 6.13 5.1 4.1
134 2 6.56 6.34 3.34
135 2 4.38 4.84 5.6
136 2 5.7 4.83 6.36
137 2 2.17 1.18 4.88
138 2 3.49 1.17 5.63
139 2 2.23 5.15 6.35
140 2 2.65 6.39 5.59
141 2 5.65 1.43 1.86
142 2 5.23 2.67 1.1
143 2 5.23 2.69 5.61
144 2 5.65 1.45 6.37
145 2 1.78 4.88 8.61
146 2 1.33 3.65 7.85
147 2 1.78 4.85 4.11
148 2 1.78 4.85 2.6
149 2 3.52 5.14 1.1
150 2 2.64 6.37 1.11
151 2 3.49 1.15 1.11
152 2 2.17 1.16 1.87
153 2 6.09 1.14 4.12
154 2 6.53 14.6171 3.37
155 2 6.09 1.15 8.63
156 2 6.53 14.6371 7.86
157 2 7.43 5.14 7.86
158 2 6.53 6.36 7.86
159 2 1.77 1.51 7.13
160 2 0.46 1.51 7.89
161 2 9.16 2.71 3.37
162 2 8.28 1.48 3.37
163 2 13.06 3.59 1.12
164 2 13.5 4.82 0.36
165 2 13.94 5.12 2.61
166 2 15.25 5.14 3.36
167 2 13.52 4.82 4.86
168 2 12.21 4.84 5.62
169 2 11.31 1.17 5.63
170 2 10 1.18 4.88
171 2 10.47 6.39 5.62
172 2 10.05 5.15 4.86
173 2 12.18 1.46 1.11
174 2 13.49 1.45 1.86
175 2 13.05 2.69 5.61
176 2 13.48 1.45 6.37
177 2 9.61 4.88 7.11
178 2 9.16 3.65 7.88
179 2 8.3 4.84 3.36
180 2 9.61 4.85 2.61
181 2 10.04 5.17 0.35
182 2 11.35 5.14 1.11
183 2 10.02 1.16 0.36
184 2 10.02 1.16 1.88
185 2 13.91 1.14 4.12
186 2 14.35 14.6171 3.37
187 2 13.91 1.15 8.63
188 2 14.36 14.6371 7.86
189 2 13.94 5.14 7.11
190 2 15.26 5.16 7.86
191 2 8.28 1.51 7.89
192 2 9.59 1.51 7.13
193 2 1.75 8.83 4.12
194 2 1.33 10.07 3.36
195 2 4.39 12.19 1.1
196 2 5.25 10.94 1.11
197 2 7.43 12.49 3.36
198 2 6.12 12.48 2.61
199 2 5.68 12.17 4.85
200 2 5.68 12.18 6.37
201 2 2.17 8.54 6.37
202 2 3.49 8.52 5.61
203 2 2.64 13.74 5.61
204 2 3.52 12.51 5.61
205 2 4.35 8.81 1.13
206 2 5.66 8.81 0.36
207 2 5.23 10.04 5.63
208 2 5.65 8.8 4.88
209 2 1.78 12.24 7.11
210 2 1.34 11.01 7.88
211 2 0.48 12.2 3.35
212 2 1.79 12.21 4.11
213 2 2.23 12.49 1.85
214 2 2.65 13.72 1.09
215 2 2.19 8.52 1.88
216 2 2.2 8.52 0.36
217 2 7.38 8.49 3.39
218 2 6.07 8.48 2.63
219 2 6.07 8.5 7.13
220 2 7.38 8.51 7.89
221 2 6.12 12.49 8.61
222 2 7.43 12.51 7.85
223 2 0.46 8.86 7.86
224 2 1.77 8.86 8.62
225 2 9.57 8.85 4.13
226 2 9.57 8.84 2.61
227 2 12.21 12.19 1.1
228 2 13.08 10.94 1.11
229 2 13.95 12.48 2.6
230 2 13.95 12.48 4.11
231 2 13.52 12.18 6.36
232 2 12.21 12.19 5.6
233 2 11.31 8.52 5.61
234 2 10 8.54 6.37
235 2 10.47 13.74 5.62
236 2 10.05 12.51 4.86
237 2 13.47 8.8 1.87
238 2 13.47 8.81 0.36
239 2 13.48 8.8 4.88
240 2 13.05 10.04 5.63
241 2 9.6 12.22 8.62
242 2 9.6 12.22 7.11
243 2 9.16 10.99 3.37
244 2 9.61 12.22 2.61
245 2 10.48 13.72 1.13
246 2 10.05 12.49 0.35
247 2 11.3 8.53 1.12
248 2 10.43 7.29 1.11
249 2 15.2 8.51 3.37
250 2 14.34 7.26 3.37
251 2 14.36 7.28 7.88
252 2 13.91 8.52 7.13
253 2 15.26 12.51 7.85
254 2 13.94 12.49 8.61
255 2 9.15 10.09 7.86
256 2 9.57 8.85 8.62
257 2 1.77 1.49 11.66
258 2 0.46 1.49 12.42
259 2 5.68 4.81 10.9
260 2 5.67 4.81 9.38
261 2 6.56 6.34 12.38
262 2 6.13 5.1 13.14
263 2 4.39 4.85 14.65
264 2 5.25 3.61 14.65
265 2 2.19 1.18 13.9
266 2 2.19 1.18 15.42
267 2 2.23 5.15 15.39
268 2 2.65 6.39 14.63
269 2 4.36 1.44 10.15
270 2 5.24 2.67 10.15
271 2 4.35 1.48 14.65
272 2 5.66 1.47 15.41
273 2 1.78 4.88 17.65
274 2 1.33 3.65 16.89
275 2 1.78 4.87 13.14
276 2 1.34 3.64 12.39
277 2 2.21 5.16 10.89
278 2 3.52 5.14 10.13
279 2 2.19 1.18 9.41
280 2 2.63 14.6471 10.16
281 2 6.09 1.13 11.65
282 2 6.09 1.14 13.17
283 2 6.53 14.6371 16.9
284 2 6.09 1.15 17.67
285 2 7.43 5.16 16.9
286 2 6.12 5.14 16.15
287 2 0.46 1.51 16.89
288 2 1.77 1.51 17.66
289 2 8.28 1.48 12.41
290 2 9.16 2.71 12.4
291 2 13.5 4.81 9.38
292 2 13.5 4.81 10.9
293 2 15.25 5.14 12.39
294 2 13.94 5.13 13.14
295 2 13.51 4.84 15.39
296 2 13.06 3.61 14.64
297 2 10.46 14.6671 14.67
298 2 10.01 1.19 13.91
299 2 11.35 5.16 14.65
300 2 10.04 5.17 13.9
301 2 13.07 2.67 10.15
302 2 12.18 1.44 10.15
303 2 13.49 1.47 15.41
304 2 12.18 1.48 14.65
305 2 9.16 3.65 16.91
306 2 9.61 4.88 16.15
307 2 9.61 4.85 11.64
308 2 8.3 4.84 12.4
309 2 10.04 5.17 9.39
310 2 11.35 5.14 10.15
311 2 10.02 1.16 10.91
312 2 10.02 1.16 9.4
313 2 13.92 1.13 11.65
314 2 13.92 1.14 13.17
315 2 13.91 1.15 17.67
316 2 14.36 14.6371 16.9
317 2 14.36 6.36 16.9
318 2 15.25 5.14 16.9
319 2 8.28 1.51 16.93
320 2 9.59 1.51 16.17
321 2 1.75 8.83 11.66
322 2 1.33 10.07 12.41
323 2 5.7 12.16 10.89
324 2 4.38 12.17 10.13
325 2 6.13 12.46 13.14
326 2 6.56 13.7 12.38
327 2 4.39 12.21 14.65
328 2 5.25 10.96 14.65
329 2 3.49 8.52 14.67
330 2 2.17 8.53 13.91
331 2 2.65 13.74 14.63
332 2 2.23 12.5 15.39
333 2 5.22 10.02 10.17
334 2 5.65 8.79 9.4
335 2 5.65 8.81 13.9
336 2 5.65 8.82 15.42
337 2 0.48 12.22 16.89
338 2 1.79 12.22 17.65
339 2 0.48 12.2 12.39
340 2 1.79 12.21 13.14
341 2 2.23 12.52 9.38
342 2 2.23 12.51 10.89
343 2 2.61 7.29 10.15
344 2 3.48 8.53 10.16
345 2 7.38 8.49 12.42
346 2 6.07 8.48 11.66
347 2 6.52 7.28 16.91
348 2 7.37 8.53 16.91
349 2 6.14 12.5 17.65
350 2 6.13 12.5 16.14
351 2 1.75 8.84 16.16
352 2 1.33 10.09 16.92
353 2 9.57 8.85 13.16
354 2 9.57 8.84 11.65
355 2 13.08 10.94 10.15
356 2 12.21 12.19 10.14
357 2 14.37 13.7 12.41
358 2 13.95 12.46 11.65
359 2 12.21 12.19 14.66
360 2 13.52 12.17 13.9
361 2 11.3 8.55 14.66
362 2 10.43 7.31 14.66
363 2 10.05 12.53 15.4
364 2 10.05 12.52 13.89
365 2 13.47 8.81 9.39
366 2 13.47 8.8 10.91
367 2 13.48 8.8 13.91
368 2 13.05 10.04 14.67
369 2 9.19 11.01 16.9
370 2 8.31 12.24 16.9
371 2 8.31 12.22 12.39
372 2 9.19 10.99 12.4
373 2 10.48 13.72 10.13
374 2 10.05 12.49 10.88
375 2 10.43 7.29 10.15
376 2 11.3 8.53 10.16
377 2 15.2 8.51 12.41
378 2 14.34 7.26 12.4
379 2 15.2 8.51 16.93
380 2 13.89 8.5 16.17
381 2 13.96 12.5 17.65
382 2 13.95 12.5 16.14
383 2 9.57 8.86 16.15
384 2 9.56 8.86 17.67
ITEM: TIMESTEP
200
ITEM: NUMBER OF ATOMS
384
ITEM: BOX BOUNDS pp pp pp
2.4136573719089505e-01 1.5404311792809107e+01
2.3499875751976607e-01 1.4472146532480238e+01
3.2049711169290340e-01 1.7752539918307097e+01
ITEM: ATOMS id type x y z
1 1 1.28605 1.6695 3.29814
2 1 5.01618 4.44729 0.987429
3 1 6.34586 5.31953 3.26914
4 1 5.01352 4.33111 5.384
5 1 2.53712 0.693522 5.36468
6 1 2.47343 5.27578 5.50267
7 1 5.03836 1.75747 1.07802
8 1 5.14895 1.59216 5.46153
9 1 1.2827 4.39754 7.61151
10 1 1.27881 4.37025 3.23087
11 1 2.53592 5.26167 1.16741
12 1 2.49397 0.845993 1.09353
13 1 6.17928 0.860215 3.28418
14 1 6.29137 0.673008 7.65868
15 1 6.29472 5.23036 7.61987
16 1 1.38096 1.71763 7.53769
17 1 8.81774 1.80681 3.2708
18 1 12.6327 4.35152 0.988148
19 1 13.9361 5.22035 3.21679
20 1 12.6677 4.41033 5.42694
21 1 10.1466 0.896812 5.31785
22 1 10.18 5.27231 5.48594
23 1 12.7913 1.71234 1.02399
24 1 12.749 1.73716 5.29288
25 1 8.88166 4.25957 7.67586
26 1 8.88496 4.42696 3.21691
27 1 10.0894 5.36984 1.03096
28 1 10.1482 0.942867 1.11085
29 1 13.8939 0.755948 3.13743
30 1 13.955 0.858806 7.59214
31 1 14.0168 5.22014 7.64806
32 1 8.80374 1.68347 7.55055
33 1 1.27545 8.75596 3.24848
34 1 5.08703 11.4854 1.14011
35 1 6.33482 12.3639 3.2552
36 1 5.03423 11.5 5.33674
37 1 2.50606 7.94354 5.39004
38 1 2.5012 12.3133 5.34353
39 1 5.02372 8.83861 1.04114
40 1 5.11261 8.89482 5.42123
41 1 1.3109 11.5283 7.53052
42 1 1.36407 11.3957 3.13874
43 1 2.60913 12.3752 0.997806
44 1 2.5924 7.91985 1.05502
45 1 6.31944 8.03212 3.3115
46 1 6.27884 7.9102 7.59989
47 1 6.29066 12.3692 7.53962
48 1 1.31004 8.87292 7.6791
49 1 8.84814 8.8242 3.2549
50 1 12.7457 11.4376 1.02225
51 1 13.98 12.2828 3.21383
52 1 12.711 11.6103 5.38836
53 1 10.12 7.87563 5.40596
54 1 10.0849 12.4043 5.39034
55 1 12.615 8.74397 1.12476
56 1 12.5604 8.84979 5.34488
57 1 8.80066 11.4257 7.51443
58 1 8.81417 11.4855 3.1656
59 1 10.1464 12.4781 1.11129
60 1 10.0465 8.01834 1.15106
61 1 13.9996 7.98262 3.24561
62 1 13.8471 7.95532 7.56466
63 1 14.0071 12.5159 7.61076
64 1 8.82601 8.79678 7.59008
65 1 1.27356 1.71785 11.9779
66 1 5.12323 4.39939 9.79462
67 1 6.29811 5.38646 11.939
68 1 5.08429 4.38503 14.0995
69 1 2.59106 0.869408 14.2517
70 1 2.63274 5.24974 14.0886
71 1 5.13114 1.74796 9.84165
72 1 5.13057 1.63497 14.222
73 1 1.27747 4.43123 16.3214
74 1 1.43826 4.44895 11.9807
75 1 2.63676 5.24358 9.66515
76 1 2.56747 0.890603 9.82322
77 1 6.33222 0.884918 12.0253
78 1 6.4491 0.737534 16.372
79 1 6.35956 5.31613 16.2646
80 1 1.30701 1.78428 16.3307
81 1 8.84228 1.69011 11.9891
82 1 12.7153 4.33698 9.80433
83 1 13.9873 5.31039 11.9436
84 1 12.7021 4.4213 14.1021
85 1 10.1189 0.881005 14.1946
86 1 10.0594 5.20803 14.0813
87 1 12.6774 1.77206 9.79824
88 1 12.7464 1.71985 14.1945
89 1 8.79144 4.40591 16.3528
90 1 8.8263 4.39739 11.8409
91 1 10.1871 5.24968 9.69723
92 1 10.1208 0.895428 9.78262
93 1 13.9073 0.83843 11.9076
94 1 13.9702 0.792016 16.3032
95 1 13.8765 5.31315 16.2476
96 1 8.91764 1.83972 16.3204
97 1 1.15942 8.8147 11.9466
98 1 5.08762 11.5944 9.79406
99 1 6.37459 12.3919 11.9823
100 1 5.08259 11.4613 14.1881
101 1 2.5444 7.99772 14.2289
102 1 2.61139 12.4267 14.0793
103 1 5.02125 8.91498 9.74035
104 1 5.00323 8.76879 14.2115
105 1 1.3598 11.4647 16.2106
106 1 1.31658 11.5441 12.0291
107 1 2.57919 12.4435 9.86573
108 1 2.5498 7.9228 9.76117
109 1 6.22545 8.04602 11.9924
110 1 6.28196 8.01265 16.3555
111 1 6.32512 12.3689 16.3493
112 1 1.252 8.8148 16.3661
113 1 8.79329 8.6872 11.8847
114 1 12.6432 11.5682 9.80952
115 1 13.9257 12.4214 11.9835
116 1 12.7506 11.5138 14.1577
117 1 9.96811 7.90868 14.2608
118 1 10.2541 12.4063 14.1678
119 1 12.6182 8.95086 9.77624
120 1 12.6417 8.86392 14.1713
121 1 8.89123 11.5656 16.252
122 1 8.95256 11.4603 11.9524
123 1 10.1174 12.3952 9.68326
124 1 10.1454 7.93216 9.81295
125 1 13.7283 7.97573 11.9556
126 1 13.9149 7.92056 16.3736
127 1 14.0738 12.3611 16.2667
128 1 8.80127 8.8819 16.3888
129 2 0.410302 1.26565 3.35068
130 2 0.983741 2.5207 3.28832
131 2 5.50461 4.62888 1.8241
132 2 5.6385 4.90215 17.7464
133 2 5.93053 4.95049 4.07315
134 2 6.06166 6.22845 3.14646
135 2 4.18513 4.76751 5.36083
136 2 5.55251 4.85575 6.2504
137 2 2.15671 1.07637 4.57403
138 2 3.65964 1.18937 5.40714
139 2 2.00818 4.98891 6.41117
140 2 2.25172 6.30286 5.42546
141 2 5.3184 1.51061 1.89197
142 2 5.03285 2.78029 1.20073
143 2 5.17617 2.57376 5.55901
144 2 5.40601 1.22376 6.44605
145 2 1.89095 4.63386 8.41842
146 2 1.25443 3.26251 7.6941
147 2 1.63256 4.70851 4.18626
148 2 1.77024 4.68258 2.48036
149 2 3.48116 5.15951 1.32886
150 2 2.294 6.2689 1.27581
151 2 3.38347 1.15298 1.04487
152 2 2.09025 1.21452 1.95109
153 2 5.71365 1.17601 4.17881
154 2 6.24062 14.1524 3.31175
155 2 5.77754 1.0097 8.43813
156 2 6.37312 13.9619 7.67492
157 2 7.27898 4.97273 7.30447
158 2 6.24151 6.26122 7.35303
159 2 1.85491 1.19387 6.73484
160 2 0.387249 1.25625 7.71663
161 2 8.7151 2.78255 3.23447
162 2 8.0226 1.46021 3.11995
163 2 12.7109 3.36042 1.01251
164 2 13.1855 4.61863 17.5627
165 2 13.7105 4.7336 2.33139
166 2 14.8721 5.01682 3.23104
167 2 13.2142 4.72873 4.69533
168 2 11.7793 4.75079 5.5379
169 2 11.1242 1.22328 5.25685
170 2 9.53836 1.1621 4.69667
171 2 9.99972 6.32291 5.57572
172 2 9.58466 4.90038 4.80598
173 2 11.7412 1.26914 1.1548
174 2 13.0413 1.28178 1.80186
175 2 12.8065 2.7591 5.39405
176 2 13.1032 1.45224 6.23182
177 2 9.27852 4.60629 6.70032
178 2 8.96101 3.28393 7.73652
179 2 8.01333 4.85593 3.30024
180 2 9.40224 4.6618 2.49339
181 2 9.70421 5.04528 17.5853
182 2 11.0007 4.93208 0.964591
183 2 9.70626 1.02511 17.7517
184 2 9.72911 1.47366 1.9055
185 2 13.543 1.1615 4.09166
186 2 13.7258 13.9211 3.15573
187 2 13.5351 1.20234 8.45879
188 2 13.871 13.9447 7.70659
189 2 13.6755 4.82524 6.86585
190 2 14.9757 5.08428 7.70709
191 2 8.01832 1.27294 7.66556
192 2 9.40112 1.23293 6.81541
193 2 1.7575 8.5318 3.98349
194 2 1.53869 9.76501 3.03136
195 2 4.11272 11.7847 1.22734
196 2 5.0912 10.4814 1.25997
197 2 7.29186 12.0587 3.19746
198 2 6.04986 12.0903 2.2953
199 2 5.61639 11.8097 4.58293
200 2 5.4229 12.0008 6.07785
201 2 2.06142 8.4746 6.33464
202 2 3.66067 8.41647 5.27621
203 2 2.47491 13.2289 5.37387
204 2 3.63556 11.8862 5.3658
205 2 4.03767 8.61334 1.01164
206 2 5.48815 8.24116 0.477169
207 2 4.92146 9.7645 5.16015
208 2 5.63249 8.41067 4.64072
209 2 1.80381 11.7655 6.7449
210 2 1.1142 10.6358 7.64878
211 2 0.384269 11.7543 3.0111
212 2 1.78528 11.6463 4.0437
213 2 2.24942 11.9888 1.76334
214 2 2.55707 13.314 1.09249
215 2 2.21655 8.25196 1.88734
216 2 2.09788 8.39034 17.7004
217 2 7.28498 8.48304 3.40925
218 2 5.80771 8.51771 2.62123
219 2 5.9097 8.26935 6.71265
220 2 7.14246 8.36982 7.66707
221 2 5.83757 11.9026 8.31291
222 2 7.15327 11.9565 7.53963
223 2 0.517375 8.24205 7.71346
224 2 1.86786 8.39847 8.33265
225 2 9.47495 8.56817 4.01763
226 2 9.27939 8.5442 2.40027
227 2 11.6655 11.8766 1.12674
228 2 12.5565 10.4873 1.06823
229 2 13.5822 11.7837 2.43913
230 2 13.4415 11.9113 4.05201
231 2 13.4203 12.0573 6.20279
232 2 11.8199 11.959 5.44318
233 2 11.1771 8.14903 5.38028
234 2 9.6335 8.44159 6.19006
235 2 10.0939 13.3695 5.45571
236 2 9.89788 12.1281 4.44355
237 2 13.1565 8.55198 1.97494
238 2 13.1281 8.3868 17.6722
239 2 13.1062 8.55589 4.58388
240 2 12.5785 9.81067 5.2268
241 2 9.32256 11.8308 8.2941
242 2 9.19876 11.9674 6.54001
243 2 8.75535 10.5032 3.1965
244 2 9.29379 11.9379 2.47344
245 2 9.96741 13.3511 1.06045
246 2 9.67203 11.9724 0.427201
247 2 11.0282 8.22698 0.935373
248 2 9.87298 7.09668 0.945122
249 2 14.8998 8.26994 3.30717
250 2 14.0777 6.99831 3.12958
251 2 13.9455 6.83255 7.49274
252 2 13.4904 8.20222 6.71041
253 2 15.0565 12.0843 7.52171
254 2 13.4185 12.1878 8.41424
255 2 8.99494 9.72094 7.51038
256 2 9.20076 8.63242 8.41442
257 2 1.7634 1.34357 11.0686
258 2 0.407479 1.3348 12.0385
259 2 5.50676 4.88594 10.5097
260 2 5.7674 4.76657 8.94584
261 2 6.35344 6.2951 12.0223
262 2 5.85345 5.12871 12.7599
263 2 4.11599 4.68992 14.155
264 2 5.20011 3.45384 13.9938
265 2 2.07987 1.159 13.5409
266 2 1.98898 1.17788 15.0607
267 2 2.04351 4.9693 14.9006
268 2 2.6116 6.26483 14.1157
269 2 4.12314 1.52885 10.0977
270 2 5.09597 2.67137 10.0046
271 2 4.16586 1.33481 14.3841
272 2 5.43618 1.4462 15.0603
273 2 1.70723 4.64471 17.0436
274 2 1.34996 3.34554 16.2743
275 2 1.98449 4.66301 12.8577
276 2 1.27117 3.18264 12.0378
277 2 2.04482 4.93499 10.5026
278 2 3.60144 4.7896 9.83158
279 2 2.10807 0.977081 8.95856
280 2 2.36815 14.2034 9.84533
281 2 5.80603 1.21481 11.1838
282 2 5.86773 1.15101 12.7502
283 2 6.42314 14.0519 16.4617
284 2 5.88173 1.03029 17.0515
285 2 7.29991 4.94812 16.3835
286 2 5.89301 4.80988 15.3932
287 2 0.260985 1.50732 16.3617
288 2 1.74072 1.37924 17.2201
289 2 7.74431 1.57587 11.8692
290 2 8.87938 2.71541 11.8971
291 2 13.2603 4.50367 8.77139
292 2 13.0834 4.81997 10.5561
293 2 14.9198 4.99117 11.9799
294 2 13.5404 4.84721 12.7727
295 2 13.2275 4.74257 14.9373
296 2 12.7678 3.5056 14.0698
297 2 10.2638 14.1208 14.1984
298 2 9.65597 1.01005 13.2998
299 2 11.0467 5.08499 13.9026
300 2 9.64758 4.86787 13.2275
301 2 12.6424 2.66479 9.86361
302 2 11.5979 1.47875 9.88862
303 2 13.0555 1.39259 15.3049
304 2 11.7988 1.30222 14.2519
305 2 8.97982 3.24522 16.2974
306 2 9.35688 4.79947 15.5495
307 2 9.13883 4.8097 11.0317
308 2 7.91797 4.66955 11.8763
309 2 9.78829 5.00235 8.80851
310 2 11.2083 4.93305 9.89655
311 2 9.74367 1.10244 10.6048
312 2 9.71772 1.25256 9.00524
313 2 13.3774 1.24668 11.0314
314 2 13.391 0.924884 12.7616
315 2 13.4534 0.870545 17.0744
316 2 14.121 14.066 16.1279
317 2 13.8748 6.20995 16.185
318 2 14.8371 4.97782 16.2942
319 2 8.04772 1.52936 16.4418
320 2 9.47561 1.53793 15.572
321 2 1.71757 8.26786 11.1044
322 2 1.29571 9.96321 11.9832
323 2 5.73115 11.8569 10.5016
324 2 4.21046 12.0706 9.95391
325 2 5.69363 11.9649 12.6498
326 2 6.37171 13.3811 11.9768
327 2 4.22188 11.861 14.1488
328 2 5.11392 10.4416 14.25
329 2 3.37075 8.55695 14.2494
330 2 2.1083 8.33735 13.4267
331 2 2.63697 13.5599 14.0294
332 2 2.04019 12.3871 14.8709
333 2 5.16536 9.83736 9.50467
334 2 5.41972 8.48078 8.97001
335 2 5.62325 8.44297 13.4296
336 2 5.77924 8.47481 14.8766
337 2 0.449107 11.8315 16.1994
338 2 1.84308 11.7256 16.9874
339 2 0.478628 11.8298 11.9905
340 2 1.80566 12.0777 12.7005
341 2 2.09335 11.8826 9.11697
342 2 1.95821 12.2189 10.6343
343 2 2.57142 6.92025 9.58285
344 2 3.46473 8.23252 9.65314
345 2 7.14071 8.47964 11.8956
346 2 5.76146 8.39535 11.198
347 2 6.32734 7.15262 16.1363
348 2 7.20568 8.31833 16.4861
349 2 5.93978 12.0077 17.1509
350 2 5.93662 12.0962 15.6516
351 2 1.71997 8.67341 15.4144
352 2 1.25484 10.0091 16.3635
353 2 9.09203 8.30195 12.8352
354 2 9.21137 8.17556 11.188
355 2 12.6713 10.6307 9.76399
356 2 11.5992 11.8611 9.9217
357 2 13.8648 13.4821 11.9484
358 2 13.4725 12.155 11.0049
359 2 11.833 11.8614 14.1735
360 2 13.0763 11.8103 13.3789
361 2 10.9218 8.25363 14.0879
362 2 9.88556 6.85856 14.1817
363 2 9.82858 12.2141 14.9845
364 2 9.67236 12.073 13.3957
365 2 12.8994 8.44393 8.97278
366 2 13.2877 8.43372 10.5161
367 2 12.9226 8.6074 13.2026
368 2 12.6275 9.874 14.185
369 2 9.17176 10.6817 16.4291
370 2 7.8498 11.795 16.3014
371 2 8.07882 11.8577 12.0454
372 2 8.81888 10.4568 12.0066
373 2 10.2433 13.4214 9.59122
374 2 9.6827 12.2344 10.5492
375 2 10.2506 6.94538 9.69511
376 2 11.0617 8.20747 9.78988
377 2 14.9696 8.29914 11.8871
378 2 14.0006 7.01065 12.0928
379 2 14.7451 8.31142 16.2822
380 2 13.4284 8.26627 15.5649
381 2 13.5277 11.9526 16.8068
382 2 13.4516 12.0202 15.4737
383 2 9.0478 8.46979 15.592
384 2 9.44423 8.54923 17.3072
ITEM: TIMESTEP
400
ITEM: NUMBER OF ATOMS
384
ITEM: BOX BOUNDS pp pp pp
4.6654049692420863e-01 1.5179137033075790e+01
4.3348055518130035e-01 1.4273664734818711e+01
6.2313843955395143e-01 1.7449898590446061e+01
ITEM: ATOMS id type x y z
1 1 1.41905 1.64081 3.27315
2 1 5.08967 4.40888 1.10961
3 1 6.16941 5.12061 3.20208
4 1 4.81404 4.21687 5.1659
5 1 2.54455 0.599371 5.35104
6 1 2.4583 5.13171 5.30937
7 1 4.89743 1.79683 1.1726
8 1 4.93687 1.62581 5.19247
9 1 1.19616 4.3293 7.41354
10 1 1.17076 4.2943 3.04996
11 1 2.53475 5.1118 1.06663
12 1 2.50702 0.916198 1.06011
13 1 6.13136 0.782052 3.19611
14 1 6.28089 0.779267 7.32863
15 1 6.11306 5.13234 7.21082
16 1 1.45165 1.75748 7.325
17 1 8.56433 1.78473 3.16819
18 1 12.2996 4.20543 0.810763
19 1 13.4479 5.00221 2.93888
20 1 12.2535 4.14369 5.12724
21 1 9.92129 0.689595 5.10768
22 1 9.86968 5.06796 5.20566
23 1 12.2712 1.57438 1.01916
24 1 12.4214 1.5504 5.24209
25 1 8.63431 4.1565 7.27657
26 1 8.54602 4.38459 2.97813
27 1 9.85409 5.19627 0.880212
28 1 9.72241 0.925757 1.1297
29 1 13.6404 0.933281 3.11366
30 1 13.6259 0.850386 7.5147
31 1 13.5247 5.19382 7.13489
32 1 8.78385 1.50731 7.32233
33 1 1.2722 8.55442 3.16283
34 1 4.96873 11.1341 1.09251
35 1 6.25077 12.085 3.05914
36 1 4.93868 11.2238 5.06389
37 1 2.46143 7.73756 5.35694
38 1 2.38094 11.8197 5.24497
39 1 4.81946 8.60374 1.05619
40 1 4.86446 8.5727 5.09808
41 1 1.18675 11.1623 7.34956
42 1 1.18446 11.1206 3.12281
43 1 2.60643 12.2078 1.00616
44 1 2.41188 7.60969 0.994102
45 1 6.26987 7.74625 3.03488
46 1 6.17487 7.77461 7.27657
47 1 6.02391 11.9729 7.31027
48 1 1.13418 8.48014 7.28736
49 1 8.69039 8.59848 3.0042
50 1 12.2992 11.1385 1.02213
51 1 13.4716 12.2363 3.17198
52 1 12.3635 11.3461 5.27587
53 1 9.85947 7.62411 5.25842
54 1 9.79701 12.0024 5.31336
55 1 12.3931 8.61875 1.126
56 1 12.2406 8.71131 5.11071
57 1 8.48941 11.204 7.26256
58 1 8.70045 11.2068 3.09103
59 1 9.94518 12.1482 1.05655
60 1 9.8622 7.77956 1.01273
61 1 13.6492 7.66599 3.12855
62 1 13.3807 7.81916 7.23034
63 1 13.5058 12.108 7.51139
64 1 8.51423 8.61284 7.27073
65 1 1.45101 1.64533 11.5836
66 1 4.92343 4.21617 9.39407
67 1 6.1634 5.26041 11.5853
68 1 4.98378 4.43312 13.6483
69 1 2.53488 0.781618 13.6652
70 1 2.49862 5.17705 13.7217
71 1 4.99168 1.60595 9.64554
72 1 5.0028 1.93993 13.7542
73 1 1.16466 4.35123 15.7101
74 1 1.35123 4.18911 11.6616
75 1 2.50066 5.15779 9.61685
76 1 2.56928 0.755804 9.52525
77 1 6.22475 0.765735 11.7385
78 1 6.15311 0.787018 15.8742
79 1 6.25109 5.15314 15.8099
80 1 1.18748 1.59765 15.7459
81 1 8.49115 1.71276 11.5441
82 1 12.4409 4.32358 9.4447
83 1 13.5886 5.15755 11.6021
84 1 12.2029 4.17506 13.5875
85 1 9.75999 0.798702 13.5609
86 1 9.79631 4.94511 13.4412
87 1 12.2047 1.71539 9.59587
88 1 12.3177 1.51918 13.6772
89 1 8.67511 4.11268 15.6735
90 1 8.49513 4.28418 11.3289
91 1 9.93531 5.2072 9.25193
92 1 9.91225 0.777607 9.52434
93 1 13.6533 0.956108 11.5287
94 1 13.6251 0.561276 15.8536
95 1 13.4823 5.18869 15.5424
96 1 8.64124 1.61693 15.6612
97 1 1.20441 8.72337 11.5362
98 1 4.88621 11.2453 9.49336
99 1 6.14432 11.9995 11.5814
100 1 4.8634 11.2275 13.7319
101 1 2.37507 7.69926 13.6542
102 1 2.44573 11.9931 13.5909
103 1 4.68729 8.62856 9.41265
104 1 4.76042 8.74331 13.6916
105 1 1.32246 11.0839 15.8379
106 1 1.19529 11.3391 11.4935
107 1 2.41682 12.0853 9.43103
108 1 2.31628 7.69186 9.45847
109 1 6.08185 7.8754 11.4909
110 1 6.18681 7.79842 15.7641
111 1 6.20696 12.0171 15.7631
112 1 1.25401 8.5556 15.7665
113 1 8.64158 8.65894 11.5323
114 1 12.1963 11.2502 9.45651
115 1 13.4464 12.1907 11.4644
116 1 12.117 11.2934 13.5298
117 1 9.77311 7.61361 13.7315
118 1 9.72667 12.0351 13.495
119 1 12.224 8.54595 9.43221
120 1 12.1914 8.60825 13.5723
121 1 8.69783 11.3735 15.8635
122 1 8.52596 11.1102 11.4874
123 1 9.7518 11.9799 9.4522
124 1 9.81059 7.71068 9.41068
125 1 13.5316 7.70472 11.5341
126 1 13.5085 7.74491 15.7114
127 1 13.5669 11.8365 15.7475
128 1 8.56468 8.64891 15.7104
129 2 0.542575 1.24437 3.18329
130 2 1.45048 2.61236 3.34175
131 2 5.3866 4.63333 1.94825
132 2 5.64167 4.67057 17.0887
133 2 5.61896 4.6667 4.04347
134 2 6.22569 6.37112 3.081
135 2 3.74669 4.56852 5.1495
136 2 5.3779 4.54486 5.9763
137 2 2.08928 0.728546 4.52284
138 2 3.47324 1.00107 5.22326
139 2 1.84145 4.94786 6.15436
140 2 2.36594 6.19815 5.1489
141 2 5.61728 1.43946 2.08001
142 2 5.08334 2.72388 0.914945
143 2 4.78976 2.50091 5.21644
144 2 5.35195 1.31285 6.06148
145 2 1.71008 4.61285 8.176
146 2 1.21689 3.20269 7.30796
147 2 1.57803 4.66546 3.8346
148 2 1.84765 4.52346 2.38878
149 2 3.6249 4.89635 0.954834
150 2 2.54456 6.05763 0.983436
151 2 3.55884 1.49384 1.07821
152 2 2.0752 1.43736 1.8539
153 2 5.42516 1.14392 4.19879
154 2 6.29021 13.7432 3.25026
155 2 5.99098 1.28358 8.12149
156 2 6.25633 13.7341 7.37624
157 2 6.99008 4.84519 7.1417
158 2 6.13468 6.18926 7.0764
159 2 1.67578 1.45805 6.48503
160 2 0.534559 1.28462 7.29381
161 2 8.5656 2.81116 3.19371
162 2 7.50319 1.40164 3.14752
163 2 12.1917 3.20818 0.833015
164 2 12.6868 4.4308 16.7945
165 2 12.7859 4.81684 2.17951
166 2 14.3196 4.66176 2.93445
167 2 12.65 4.26288 4.40187
168 2 11.2268 4.44387 5.09228
169 2 11.0103 0.833282 5.05899
170 2 9.39684 1.0952 4.42688
171 2 9.83137 6.22158 5.29794
172 2 9.30701 4.95833 4.36756
173 2 11.3197 1.19499 0.910869
174 2 12.9721 1.35783 1.75625
175 2 12.4 2.56999 5.42671
176 2 12.8159 1.40702 6.20943
177 2 9.07132 4.53252 6.32238
178 2 8.69 3.06436 7.44968
179 2 7.56309 4.76248 3.18202
180 2 9.00373 4.88147 2.27809
181 2 9.40511 4.89138 16.7
182 2 10.8311 5.01522 0.76382
183 2 9.19667 1.18627 17.0686
184 2 9.42919 1.46277 1.85623
185 2 13.2056 1.17984 4.072
186 2 13.5762 13.5378 3.15563
187 2 13.2713 1.15719 8.42592
188 2 13.4468 13.5865 7.67702
189 2 13.2368 4.6592 6.39883
190 2 14.5625 5.19322 7.2521
191 2 7.77992 1.21102 7.27011
192 2 9.17563 1.45552 6.34698
193 2 1.72367 8.28083 3.94039
194 2 1.39861 9.51067 3.08807
195 2 4.01157 11.5152 0.854726
196 2 4.92794 10.1309 1.05456
197 2 7.14063 11.6819 3.09826
198 2 5.85193 11.6921 2.3068
199 2 5.46119 11.4838 4.29696
200 2 5.47415 11.4388 5.73765
201 2 1.76773 8.17623 6.29984
202 2 3.29274 8.11511 5.49558
203 2 2.4843 12.8797 5.24605
204 2 3.3602 11.7683 5.27637
205 2 3.87372 8.26061 1.111
206 2 5.30724 8.28487 16.9437
207 2 5.08563 9.47759 5.00722
208 2 5.37076 8.27012 4.19189
209 2 1.62164 11.2735 6.51894
210 2 1.17748 10.1582 7.44349
211 2 15.1302 11.5181 3.44485
212 2 1.8672 11.4792 3.82631
213 2 1.9733 11.9223 1.81579
214 2 2.66242 13.2026 0.859017
215 2 1.97462 8.04802 1.78281
216 2 1.98915 8.00465 17.0176
217 2 7.27057 7.93703 3.15944
218 2 5.75626 7.9869 2.21759
219 2 5.73313 7.95302 6.53193
220 2 7.42766 8.2247 7.19132
221 2 5.7277 11.7465 8.30021
222 2 6.92339 11.6274 7.28162
223 2 15.0178 8.11302 7.49653
224 2 1.52344 8.20608 8.23753
225 2 9.15944 8.28075 3.87251
226 2 9.04607 8.10392 2.32415
227 2 11.4081 11.3592 1.06412
228 2 12.3943 10.1706 1.08334
229 2 13.0935 11.7555 2.30589
230 2 12.9041 11.949 4.1007
231 2 12.9054 11.738 6.11984
232 2 11.378 11.5148 5.38044
233 2 10.8633 8.04118 5.26142
234 2 9.43782 8.1801 5.97028
235 2 9.9312 12.9671 5.22242
236 2 9.26204 11.7027 4.55587
237 2 13.0792 8.13667 2.17115
238 2 12.8167 8.19379 17.2161
239 2 12.7265 8.21636 4.44869
240 2 12.2235 9.74077 5.06464
241 2 9.11664 11.52 8.04084
242 2 8.85683 11.5605 6.42025
243 2 8.84312 10.2188 3.18334
244 2 9.24447 11.4142 2.16319
245 2 9.92315 13.1145 1.20692
246 2 9.44009 11.9941 16.9859
247 2 10.9229 8.03139 0.986125
248 2 9.92522 6.53966 1.05762
249 2 14.5789 7.95484 3.38931
250 2 13.4413 6.64895 2.93594
251 2 13.2298 6.79893 7.25789
252 2 13.0241 7.99952 6.33475
253 2 14.5501 11.7421 7.52451
254 2 12.8451 11.6965 8.35553
255 2 8.29689 9.65002 7.33805
256 2 8.95853 8.10161 8.24771
257 2 1.95911 1.19735 10.7785
258 2 0.485448 1.40747 11.4604
259 2 5.76816 4.59349 10.1924
260 2 5.32626 4.61513 8.41357
261 2 6.02506 6.41064 11.5972
262 2 5.89633 4.88105 12.4121
263 2 3.96583 4.69979 13.7947
264 2 4.84577 3.54416 13.6152
265 2 2.07016 0.985161 12.7878
266 2 1.84676 1.29794 14.3048
267 2 2.12902 4.84489 14.5475
268 2 2.55173 6.37539 13.7316
269 2 4.16818 1.24603 9.41538
270 2 4.92902 2.74834 9.56707
271 2 4.04705 1.35275 13.7512
272 2 5.47073 1.42524 14.5337
273 2 1.74055 4.65522 16.5004
274 2 1.31226 3.23619 15.8575
275 2 1.74795 4.4081 12.5074
276 2 1.35212 3.14168 11.7249
277 2 2.11444 4.87946 10.5722
278 2 3.42915 4.88603 9.6573
279 2 2.08547 1.12124 8.71873
280 2 2.48718 13.6894 9.47458
281 2 5.5988 1.03082 10.8036
282 2 5.79401 1.18102 12.6823
283 2 5.97315 13.6035 15.9328
284 2 5.53762 1.15322 16.7696
285 2 7.0927 4.7231 15.7145
286 2 5.94399 4.55464 14.9615
287 2 14.9802 1.23723 15.6279
288 2 1.57408 1.29264 16.5943
289 2 7.56806 1.32841 11.6859
290 2 8.46921 2.85557 11.4374
291 2 12.9517 4.64499 8.65441
292 2 13.047 4.5669 10.3125
293 2 14.6604 4.88421 11.5613
294 2 13.0685 4.88324 12.3591
295 2 12.9173 4.54532 14.1005
296 2 12.5484 3.13677 13.5943
297 2 9.59775 13.6428 13.5596
298 2 9.31438 1.17113 12.671
299 2 10.728 4.50418 13.4375
300 2 9.36996 4.77333 12.4941
301 2 12.0899 2.63085 9.33511
302 2 11.28 1.32394 9.46984
303 2 12.6308 1.33558 14.564
304 2 11.198 1.41114 13.4233
305 2 8.45125 3.18293 15.613
306 2 8.87883 4.4286 14.6883
307 2 9.13538 4.82457 10.6307
308 2 7.49738 4.78472 11.4462
309 2 9.3828 4.76101 8.5847
310 2 10.9198 4.94387 9.30124
311 2 9.29567 1.24929 10.2181
312 2 9.55658 1.13319 8.73429
313 2 13.1015 1.41432 10.8503
314 2 13.0062 1.49745 12.1132
315 2 13.0757 1.02289 16.7688
316 2 13.4616 13.4763 15.9359
317 2 13.4796 6.09725 15.3927
318 2 14.5656 4.78788 15.614
319 2 7.43923 1.36105 15.8677
320 2 9.0709 1.16018 15.0029
321 2 1.59969 8.4019 10.7792
322 2 0.997491 9.62727 11.4527
323 2 5.46774 11.545 10.281
324 2 3.91351 11.4506 9.44705
325 2 5.5769 11.6912 12.3724
326 2 6.19508 12.8874 11.7598
327 2 3.96018 11.3541 13.8425
328 2 4.95274 10.2374 13.6871