ITEM: TIMESTEP
0
ITEM: NUMBER OF ATOMS
384
ITEM: BOX BOUNDS pp pp pp
0.0000000000000000e+00 1.5645677530000000e+01
0.0000000000000000e+00 1.4707145290000000e+01
0.0000000000000000e+00 1.8073037029999998e+01
ITEM: ATOMS id type x y z
1 1 1.38 1.76 3.37
2 1 5.2 4.47 1.11
3 1 6.59 5.39 3.31
4 1 5.28 4.49 5.56
5 1 2.59 0.84 5.67
6 1 2.69 5.43 5.56
7 1 5.2 1.71 1.07
8 1 5.2 1.73 5.58
9 1 1.32 4.61 7.82
10 1 1.3 4.52 3.36
11 1 2.61 5.41 1.1
12 1 2.59 0.82 1.07
13 1 6.54 0.87 3.33
14 1 6.54 0.88 7.83
15 1 6.51 5.4 7.86
16 1 1.35 1.85 7.92
17 1 9.2 1.76 3.37
18 1 13.05 4.55 1.15
19 1 14.35 5.46 3.4
20 1 13.1 4.49 5.66
21 1 10.41 0.84 5.67
22 1 10.51 5.43 5.65
23 1 13.07 1.79 1.07
24 1 13.02 1.73 5.58
25 1 9.15 4.61 7.91
26 1 9.2 4.52 3.4
27 1 10.45 5.49 1.15
28 1 10.49 0.82 1.12
29 1 14.36 0.87 3.33
30 1 14.36 0.88 7.83
31 1 14.36 5.48 7.9
32 1 9.17 1.85 7.92
33 1 1.3 9.11 3.32
34 1 5.3 11.9 1.11
35 1 6.53 12.81 3.4
36 1 5.2 11.84 5.61
37 1 2.59 8.19 5.58
38 1 2.61 12.79 5.61
39 1 5.25 9.14 1.16
40 1 5.2 9.08 5.67
41 1 1.32 11.96 7.91
42 1 1.38 11.87 3.31
43 1 2.69 12.77 1.06
44 1 2.67 8.17 1.12
45 1 6.49 8.14 3.42
46 1 6.49 8.16 7.92
47 1 6.53 12.83 7.81
48 1 1.35 9.21 7.83
49 1 9.09 9.19 3.37
50 1 13.13 11.9 1.11
51 1 14.44 12.82 3.35
52 1 13.1 11.84 5.56
53 1 10.41 8.19 5.58
54 1 10.51 12.79 5.65
55 1 12.99 9.14 1.12
56 1 13.02 9.08 5.67
57 1 9.12 11.89 7.86
58 1 9.15 11.95 3.4
59 1 10.51 12.77 1.15
60 1 10.38 8.25 1.12
61 1 14.29 8.22 3.37
62 1 14.36 8.24 7.92
63 1 14.36 12.83 7.81
64 1 9.12 9.13 7.83
65 1 1.35 1.83 12.45
66 1 5.2 4.47 10.14
67 1 6.59 5.39 12.34
68 1 5.3 4.56 14.65
69 1 2.67 0.84 14.66
70 1 2.69 5.43 14.6
71 1 5.28 1.71 10.15
72 1 5.25 1.81 14.61
73 1 1.32 4.61 16.85
74 1 1.32 4.59 12.35
75 1 2.63 5.49 10.09
76 1 2.64 0.89 10.2
77 1 6.57 0.79 12.41
78 1 6.54 0.88 16.87
79 1 6.53 5.48 16.94
80 1 1.35 1.85 16.86
81 1 9.2 1.76 12.41
82 1 13.02 4.47 10.14
83 1 14.35 5.46 12.34
84 1 13.05 4.57 14.6
85 1 10.46 0.91 14.71
86 1 10.46 5.51 14.69
87 1 13.1 1.71 10.15
88 1 13.07 1.81 14.61
89 1 9.15 4.61 16.94
90 1 9.2 4.52 12.44
91 1 10.45 5.49 10.18
92 1 10.49 0.82 10.16
93 1 14.39 0.79 12.41
94 1 14.36 0.88 16.87
95 1 14.33 5.4 16.89
96 1 9.17 1.85 16.96
97 1 1.3 9.11 12.45
98 1 5.28 11.83 10.1
99 1 6.59 12.74 12.34
100 1 5.3 11.92 14.65
101 1 2.59 8.19 14.71
102 1 2.69 12.79 14.6
103 1 5.2 9.07 10.2
104 1 5.17 9.16 14.66
105 1 1.38 11.89 16.85
106 1 1.38 11.87 12.35
107 1 2.71 12.84 10.14
108 1 2.56 8.25 10.16
109 1 6.49 8.14 12.46
110 1 6.46 8.24 16.91
111 1 6.61 12.83 16.89
112 1 1.3 9.13 16.96
113 1 9.09 9.19 12.41
114 1 13.13 11.9 10.14
115 1 14.41 12.74 12.44
116 1 13.1 11.84 14.69
117 1 10.38 8.27 14.66
118 1 10.53 12.86 14.64
119 1 12.99 9.14 10.15
120 1 13.02 9.08 14.7
121 1 9.23 11.96 16.9
122 1 9.23 11.95 12.39
123 1 10.51 12.77 10.09
124 1 10.38 8.25 10.16
125 1 14.29 8.22 12.41
126 1 14.31 8.16 16.96
127 1 14.44 12.83 16.89
128 1 9.09 9.21 16.91
129 2 0.46 1.48 3.37
130 2 1.33 2.71 3.37
131 2 5.68 4.81 1.86
132 2 5.67 4.81 0.35
133 2 6.13 5.1 4.1
134 2 6.56 6.34 3.34
135 2 4.38 4.84 5.6
136 2 5.7 4.83 6.36
137 2 2.17 1.18 4.88
138 2 3.49 1.17 5.63
139 2 2.23 5.15 6.35
140 2 2.65 6.39 5.59
141 2 5.65 1.43 1.86
142 2 5.23 2.67 1.1
143 2 5.23 2.69 5.61
144 2 5.65 1.45 6.37
145 2 1.78 4.88 8.61
146 2 1.33 3.65 7.85
147 2 1.78 4.85 4.11
148 2 1.78 4.85 2.6
149 2 3.52 5.14 1.1
150 2 2.64 6.37 1.11
151 2 3.49 1.15 1.11
152 2 2.17 1.16 1.87
153 2 6.09 1.14 4.12
154 2 6.53 14.6171 3.37
155 2 6.09 1.15 8.63
156 2 6.53 14.6371 7.86
157 2 7.43 5.14 7.86
158 2 6.53 6.36 7.86
159 2 1.77 1.51 7.13
160 2 0.46 1.51 7.89
161 2 9.16 2.71 3.37
162 2 8.28 1.48 3.37
163 2 13.06 3.59 1.12
164 2 13.5 4.82 0.36
165 2 13.94 5.12 2.61
166 2 15.25 5.14 3.36
167 2 13.52 4.82 4.86
168 2 12.21 4.84 5.62
169 2 11.31 1.17 5.63
170 2 10 1.18 4.88
171 2 10.47 6.39 5.62
172 2 10.05 5.15 4.86
173 2 12.18 1.46 1.11
174 2 13.49 1.45 1.86
175 2 13.05 2.69 5.61
176 2 13.48 1.45 6.37
177 2 9.61 4.88 7.11
178 2 9.16 3.65 7.88
179 2 8.3 4.84 3.36
180 2 9.61 4.85 2.61
181 2 10.04 5.17 0.35
182 2 11.35 5.14 1.11
183 2 10.02 1.16 0.36
184 2 10.02 1.16 1.88
185 2 13.91 1.14 4.12
186 2 14.35 14.6171 3.37
187 2 13.91 1.15 8.63
188 2 14.36 14.6371 7.86
189 2 13.94 5.14 7.11
190 2 15.26 5.16 7.86
191 2 8.28 1.51 7.89
192 2 9.59 1.51 7.13
193 2 1.75 8.83 4.12
194 2 1.33 10.07 3.36
195 2 4.39 12.19 1.1
196 2 5.25 10.94 1.11
197 2 7.43 12.49 3.36
198 2 6.12 12.48 2.61
199 2 5.68 12.17 4.85
200 2 5.68 12.18 6.37
201 2 2.17 8.54 6.37
202 2 3.49 8.52 5.61
203 2 2.64 13.74 5.61
204 2 3.52 12.51 5.61
205 2 4.35 8.81 1.13
206 2 5.66 8.81 0.36
207 2 5.23 10.04 5.63
208 2 5.65 8.8 4.88
209 2 1.78 12.24 7.11
210 2 1.34 11.01 7.88
211 2 0.48 12.2 3.35
212 2 1.79 12.21 4.11
213 2 2.23 12.49 1.85
214 2 2.65 13.72 1.09
215 2 2.19 8.52 1.88
216 2 2.2 8.52 0.36
217 2 7.38 8.49 3.39
218 2 6.07 8.48 2.63
219 2 6.07 8.5 7.13
220 2 7.38 8.51 7.89
221 2 6.12 12.49 8.61
222 2 7.43 12.51 7.85
223 2 0.46 8.86 7.86
224 2 1.77 8.86 8.62
225 2 9.57 8.85 4.13
226 2 9.57 8.84 2.61
227 2 12.21 12.19 1.1
228 2 13.08 10.94 1.11
229 2 13.95 12.48 2.6
230 2 13.95 12.48 4.11
231 2 13.52 12.18 6.36
232 2 12.21 12.19 5.6
233 2 11.31 8.52 5.61
234 2 10 8.54 6.37
235 2 10.47 13.74 5.62
236 2 10.05 12.51 4.86
237 2 13.47 8.8 1.87
238 2 13.47 8.81 0.36
239 2 13.48 8.8 4.88
240 2 13.05 10.04 5.63
241 2 9.6 12.22 8.62
242 2 9.6 12.22 7.11
243 2 9.16 10.99 3.37
244 2 9.61 12.22 2.61
245 2 10.48 13.72 1.13
246 2 10.05 12.49 0.35
247 2 11.3 8.53 1.12
248 2 10.43 7.29 1.11
249 2 15.2 8.51 3.37
250 2 14.34 7.26 3.37
251 2 14.36 7.28 7.88
252 2 13.91 8.52 7.13
253 2 15.26 12.51 7.85
254 2 13.94 12.49 8.61
255 2 9.15 10.09 7.86
256 2 9.57 8.85 8.62
257 2 1.77 1.49 11.66
258 2 0.46 1.49 12.42
259 2 5.68 4.81 10.9
260 2 5.67 4.81 9.38
261 2 6.56 6.34 12.38
262 2 6.13 5.1 13.14
263 2 4.39 4.85 14.65
264 2 5.25 3.61 14.65
265 2 2.19 1.18 13.9
266 2 2.19 1.18 15.42
267 2 2.23 5.15 15.39
268 2 2.65 6.39 14.63
269 2 4.36 1.44 10.15
270 2 5.24 2.67 10.15
271 2 4.35 1.48 14.65
272 2 5.66 1.47 15.41
273 2 1.78 4.88 17.65
274 2 1.33 3.65 16.89
275 2 1.78 4.87 13.14
276 2 1.34 3.64 12.39
277 2 2.21 5.16 10.89
278 2 3.52 5.14 10.13
279 2 2.19 1.18 9.41
280 2 2.63 14.6471 10.16
281 2 6.09 1.13 11.65
282 2 6.09 1.14 13.17
283 2 6.53 14.6371 16.9
284 2 6.09 1.15 17.67
285 2 7.43 5.16 16.9
286 2 6.12 5.14 16.15
287 2 0.46 1.51 16.89
288 2 1.77 1.51 17.66
289 2 8.28 1.48 12.41
290 2 9.16 2.71 12.4
291 2 13.5 4.81 9.38
292 2 13.5 4.81 10.9
293 2 15.25 5.14 12.39
294 2 13.94 5.13 13.14
295 2 13.51 4.84 15.39
296 2 13.06 3.61 14.64
297 2 10.46 14.6671 14.67
298 2 10.01 1.19 13.91
299 2 11.35 5.16 14.65
300 2 10.04 5.17 13.9
301 2 13.07 2.67 10.15
302 2 12.18 1.44 10.15
303 2 13.49 1.47 15.41
304 2 12.18 1.48 14.65
305 2 9.16 3.65 16.91
306 2 9.61 4.88 16.15
307 2 9.61 4.85 11.64
308 2 8.3 4.84 12.4
309 2 10.04 5.17 9.39
310 2 11.35 5.14 10.15
311 2 10.02 1.16 10.91
312 2 10.02 1.16 9.4
313 2 13.92 1.13 11.65
314 2 13.92 1.14 13.17
315 2 13.91 1.15 17.67
316 2 14.36 14.6371 16.9
317 2 14.36 6.36 16.9
318 2 15.25 5.14 16.9
319 2 8.28 1.51 16.93
320 2 9.59 1.51 16.17
321 2 1.75 8.83 11.66
322 2 1.33 10.07 12.41
323 2 5.7 12.16 10.89
324 2 4.38 12.17 10.13
325 2 6.13 12.46 13.14
326 2 6.56 13.7 12.38
327 2 4.39 12.21 14.65
328 2 5.25 10.96 14.65
329 2 3.49 8.52 14.67
330 2 2.17 8.53 13.91
331 2 2.65 13.74 14.63
332 2 2.23 12.5 15.39
333 2 5.22 10.02 10.17
334 2 5.65 8.79 9.4
335 2 5.65 8.81 13.9
336 2 5.65 8.82 15.42
337 2 0.48 12.22 16.89
338 2 1.79 12.22 17.65
339 2 0.48 12.2 12.39
340 2 1.79 12.21 13.14
341 2 2.23 12.52 9.38
342 2 2.23 12.51 10.89
343 2 2.61 7.29 10.15
344 2 3.48 8.53 10.16
345 2 7.38 8.49 12.42
346 2 6.07 8.48 11.66
347 2 6.52 7.28 16.91
348 2 7.37 8.53 16.91
349 2 6.14 12.5 17.65
350 2 6.13 12.5 16.14
351 2 1.75 8.84 16.16
352 2 1.33 10.09 16.92
353 2 9.57 8.85 13.16
354 2 9.57 8.84 11.65
355 2 13.08 10.94 10.15
356 2 12.21 12.19 10.14
357 2 14.37 13.7 12.41
358 2 13.95 12.46 11.65
359 2 12.21 12.19 14.66
360 2 13.52 12.17 13.9
361 2 11.3 8.55 14.66
362 2 10.43 7.31 14.66
363 2 10.05 12.53 15.4
364 2 10.05 12.52 13.89
365 2 13.47 8.81 9.39
366 2 13.47 8.8 10.91
367 2 13.48 8.8 13.91
368 2 13.05 10.04 14.67
369 2 9.19 11.01 16.9
370 2 8.31 12.24 16.9
371 2 8.31 12.22 12.39
372 2 9.19 10.99 12.4
373 2 10.48 13.72 10.13
374 2 10.05 12.49 10.88
375 2 10.43 7.29 10.15
376 2 11.3 8.53 10.16
377 2 15.2 8.51 12.41
378 2 14.34 7.26 12.4
379 2 15.2 8.51 16.93
380 2 13.89 8.5 16.17
381 2 13.96 12.5 17.65
382 2 13.95 12.5 16.14
383 2 9.57 8.86 16.15
384 2 9.56 8.86 17.67
ITEM: TIMESTEP
200
ITEM: NUMBER OF ATOMS
384
ITEM: BOX BOUNDS pp pp pp
2.4136573719089505e-01 1.5404311792809107e+01
2.3499875751976607e-01 1.4472146532480238e+01
3.2049711169290340e-01 1.7752539918307097e+01
ITEM: ATOMS id type x y z
1 1 1.27327 1.6487 3.31167
2 1 4.99684 4.4292 0.98344
3 1 6.33047 5.32535 3.23956
4 1 5.01307 4.31344 5.41732
5 1 2.55799 0.708141 5.35713
6 1 2.46938 5.25158 5.53244
7 1 5.03047 1.77492 1.08109
8 1 5.12695 1.61096 5.4525
9 1 1.26197 4.40028 7.62084
10 1 1.25593 4.35271 3.27469
11 1 2.53678 5.24511 1.167
12 1 2.48608 0.87093 1.05163
13 1 6.20587 0.868974 3.25387
14 1 6.30795 0.670989 7.62936
15 1 6.27399 5.24152 7.60291
16 1 1.38648 1.71587 7.54158
17 1 8.81426 1.82681 3.25517
18 1 12.6355 4.35618 0.970699
19 1 13.9416 5.22751 3.21764
20 1 12.6668 4.41409 5.39163
21 1 10.1371 0.914339 5.35891
22 1 10.1849 5.24683 5.47493
23 1 12.7519 1.70744 1.04351
24 1 12.7567 1.72811 5.29493
25 1 8.86342 4.25505 7.66269
26 1 8.91434 4.44974 3.22837
27 1 10.0666 5.3345 1.0196
28 1 10.1233 0.967942 1.11836
29 1 13.8998 0.768775 3.1607
30 1 13.9492 0.84171 7.60898
31 1 14.0023 5.196 7.64854
32 1 8.80045 1.67554 7.53772
33 1 1.30533 8.7419 3.21554
34 1 5.07867 11.5167 1.12429
35 1 6.36293 12.3545 3.23695
36 1 5.05376 11.5226 5.34906
37 1 2.5322 7.95361 5.3871
38 1 2.50434 12.3347 5.3491
39 1 5.00403 8.83976 1.04669
40 1 5.12584 8.88171 5.41283
41 1 1.30818 11.5119 7.543
42 1 1.32804 11.3972 3.17442
43 1 2.59437 12.3714 0.996236
44 1 2.59869 7.88852 1.04817
45 1 6.31724 8.01827 3.31111
46 1 6.31407 7.90379 7.60235
47 1 6.28481 12.3642 7.56785
48 1 1.30242 8.8477 7.62971
49 1 8.86168 8.80714 3.22346
50 1 12.7541 11.425 1.02326
51 1 13.998 12.2858 3.18344
52 1 12.7389 11.617 5.40392
53 1 10.1093 7.88508 5.41687
54 1 10.068 12.3978 5.37279
55 1 12.6088 8.76255 1.1147
56 1 12.5699 8.8369 5.33356
57 1 8.81125 11.3925 7.50291
58 1 8.8391 11.4886 3.17867
59 1 10.1683 12.4858 1.11545
60 1 10.0569 8.03994 1.13855
61 1 14.0022 7.98145 3.24036
62 1 13.8304 7.96147 7.53835
63 1 13.9841 12.5288 7.60534
64 1 8.81012 8.77979 7.57711
65 1 1.2856 1.70541 11.9987
66 1 5.11834 4.39551 9.81449
67 1 6.29569 5.3995 11.95
68 1 5.10799 4.37468 14.1033
69 1 2.57361 0.871534 14.2502
70 1 2.65585 5.25886 14.0769
71 1 5.15052 1.72647 9.85883
72 1 5.12845 1.63687 14.228
73 1 1.29242 4.37433 16.3151
74 1 1.42023 4.45404 12.0035
75 1 2.61879 5.23269 9.63617
76 1 2.56716 0.868166 9.83408
77 1 6.36146 0.880503 12.0217
78 1 6.42297 0.753641 16.3789
79 1 6.31958 5.31125 16.2577
80 1 1.28573 1.77754 16.3495
81 1 8.81437 1.66293 11.9844
82 1 12.7322 4.31357 9.7881
83 1 13.9646 5.3377 11.9524
84 1 12.6757 4.42474 14.1045
85 1 10.1421 0.868951 14.217
86 1 10.0532 5.20405 14.0556
87 1 12.6711 1.76057 9.79866
88 1 12.7225 1.72945 14.2099
89 1 8.78763 4.42987 16.3363
90 1 8.84851 4.38228 11.8652
91 1 10.1883 5.26208 9.69989
92 1 10.1041 0.887055 9.77986
93 1 13.9034 0.850654 11.8965
94 1 13.9903 0.798012 16.2898
95 1 13.8889 5.32767 16.2075
96 1 8.89396 1.82859 16.3238
97 1 1.16068 8.83679 11.9334
98 1 5.07251 11.5974 9.77407
99 1 6.37651 12.3765 11.9587
100 1 5.06757 11.4905 14.1843
101 1 2.53839 8.01383 14.2025
102 1 2.6191 12.4317 14.1037
103 1 5.0091 8.91174 9.75565
104 1 5.03826 8.77655 14.2302
105 1 1.36954 11.4913 16.2209
106 1 1.32473 11.5389 12.0192
107 1 2.58691 12.3948 9.88309
108 1 2.52044 7.92668 9.74251
109 1 6.20091 8.02779 11.9577
110 1 6.30004 7.98533 16.3584
111 1 6.32531 12.3806 16.3332
112 1 1.26201 8.84376 16.3702
113 1 8.8065 8.6844 11.8683
114 1 12.6073 11.5552 9.79361
115 1 13.9666 12.4375 12.0066
116 1 12.7628 11.5024 14.1886
117 1 9.95766 7.93035 14.271
118 1 10.2757 12.4095 14.1877
119 1 12.6454 8.94234 9.76296
120 1 12.634 8.86618 14.1749
121 1 8.8743 11.5871 16.2571
122 1 8.96709 11.4377 11.9757
123 1 10.1003 12.3855 9.66541
124 1 10.1265 7.92546 9.80098
125 1 13.7371 7.96371 11.9574
126 1 13.9387 7.92687 16.3504
127 1 14.0665 12.373 16.3015
128 1 8.83338 8.89736 16.3698
129 2 0.378216 1.22982 3.40401
130 2 1.00417 2.61454 3.24881
131 2 5.54906 4.6194 1.80848
132 2 5.64675 4.78992 17.7353
133 2 5.94041 4.93427 4.04361
134 2 6.261 6.26993 3.10012
135 2 4.1889 4.67756 5.29946
136 2 5.55131 4.852 6.35143
137 2 2.17639 1.09693 4.49051
138 2 3.55156 1.15679 5.36243
139 2 2.055 5.02964 6.44322
140 2 2.40601 6.33048 5.51373
141 2 5.25981 1.53025 1.8766
142 2 5.00567 2.78157 1.12806
143 2 5.18551 2.53094 5.5397
144 2 5.33648 1.28377 6.35552
145 2 1.82829 4.62214 8.4168
146 2 1.27033 3.27473 7.72477
147 2 1.75963 4.61133 4.09432
148 2 1.80605 4.75381 2.48441
149 2 3.5241 5.22085 1.21948
150 2 2.35352 6.21261 1.24703
151 2 3.43689 1.20203 1.0631
152 2 2.10854 1.21143 2.05164
153 2 5.73588 1.20265 4.22186
154 2 6.30911 14.2746 3.32204
155 2 5.82377 1.05479 8.56853
156 2 6.32964 13.9362 7.62138
157 2 7.25496 4.94945 7.33516
158 2 6.23 6.2943 7.39116
159 2 1.69824 1.20639 6.71822
160 2 0.459975 1.29364 7.73495
161 2 8.68993 2.8476 3.11013
162 2 8.0115 1.37269 3.22615
163 2 12.7452 3.30065 0.94902
164 2 13.2424 4.70299 17.5757
165 2 13.6045 4.69812 2.39125
166 2 14.8528 4.96413 3.25275
167 2 13.1394 4.72088 4.66346
168 2 11.7657 4.70557 5.43831
169 2 11.0452 1.14399 5.33166
170 2 9.57562 1.20278 4.67357
171 2 9.97238 6.2732 5.44067
172 2 9.63756 4.86417 4.76953
173 2 11.8886 1.28657 1.06145
174 2 13.0906 1.20541 1.85963
175 2 12.8277 2.81229 5.33846
176 2 13.0017 1.3809 6.23796
177 2 9.40248 4.6222 6.86414
178 2 8.88152 3.15364 7.61096
179 2 7.87256 4.82103 3.31943
180 2 9.29411 4.71067 2.51616
181 2 9.56723 5.03389 17.5909
182 2 11.0637 4.9664 0.921311
183 2 9.66764 0.997697 17.7016
184 2 9.69356 1.41506 1.94913
185 2 13.4685 1.21429 4.11138
186 2 13.8612 13.9231 3.16631
187 2 13.5411 1.26998 8.49952
188 2 13.8851 14.0202 7.78535
189 2 13.6405 4.84484 6.83465
190 2 14.96 5.06515 7.65079
191 2 7.95914 1.21433 7.65022
192 2 9.40205 1.20465 6.88001
193 2 1.76154 8.57815 4.02743
194 2 1.53191 9.79034 3.04061
195 2 4.10745 11.7004 1.20147
196 2 4.98438 10.3905 1.26535
197 2 7.29212 12.0143 3.16096
198 2 6.09425 12.148 2.28949
199 2 5.70381 11.6986 4.51356
200 2 5.4752 11.977 5.99877
201 2 1.99001 8.45644 6.36346
202 2 3.6826 8.47446 5.26887
203 2 2.41065 13.2205 5.39946
204 2 3.58421 11.9394 5.37917
205 2 4.06013 8.62024 0.97337
206 2 5.38065 8.12826 0.539235
207 2 4.92897 9.75983 5.24286
208 2 5.60208 8.37561 4.65201
209 2 1.82786 11.8507 6.79696
210 2 1.25202 10.6023 7.54983
211 2 0.333896 11.8357 3.17141
212 2 1.86418 11.7394 4.05043
213 2 2.23163 11.8845 1.70714
214 2 2.59731 13.4309 1.06184
215 2 2.2036 8.2787 1.80866
216 2 2.16677 8.44325 0.362192
217 2 7.27227 8.38658 3.45892
218 2 5.94101 8.51963 2.54295
219 2 6.02372 8.30315 6.67372
220 2 7.24064 8.31492 7.7404
221 2 5.87404 11.9976 8.34329
222 2 7.13886 11.8792 7.63731
223 2 0.481789 8.37009 7.77243
224 2 1.93437 8.33082 8.27553
225 2 9.47881 8.57322 4.09343
226 2 9.30123 8.41665 2.38948
227 2 11.8305 11.8456 1.14552
228 2 12.6183 10.4128 1.02517
229 2 13.571 11.8091 2.31544
230 2 13.4257 11.864 4.12772
231 2 13.4068 12.1153 6.14573
232 2 11.8287 11.9223 5.47145
233 2 11.1721 8.09214 5.44454
234 2 9.55709 8.37384 6.20961
235 2 10.1167 13.4447 5.47093
236 2 9.86048 12.1903 4.44609
237 2 13.1106 8.55323 2.02097
238 2 13.0466 8.44631 17.6397
239 2 13.1357 8.59008 4.55214
240 2 12.6543 9.87986 5.1912
241 2 9.34112 11.8613 8.42213
242 2 9.2257 11.9996 6.58071
243 2 8.81487 10.4885 3.33222
244 2 9.43659 11.9555 2.54518
245 2 9.97622 13.4486 1.0757
246 2 9.62852 12.0894 0.386221
247 2 11.0346 8.15812 1.05064
248 2 9.97497 7.05431 1.00002
249 2 14.9722 8.34301 3.26067
250 2 14.0854 6.93494 3.1345
251 2 13.8628 6.783 7.46216
252 2 13.5645 8.20699 6.53115
253 2 14.9683 12.1111 7.46561
254 2 13.4743 12.26 8.35448
255 2 8.97395 9.77667 7.53166
256 2 9.2888 8.53385 8.3193
257 2 1.74257 1.38571 11.0794
258 2 0.390317 1.37001 11.9952
259 2 5.53497 4.83149 10.4716
260 2 5.77213 4.71418 9.05049
261 2 6.37696 6.25897 11.9406
262 2 5.82949 5.1138 12.7917
263 2 4.14686 4.62583 14.151
264 2 5.12329 3.36624 13.9536
265 2 2.05573 1.22288 13.4581
266 2 2.10024 1.05082 15.0538
267 2 2.04974 4.90799 14.9862
268 2 2.68408 6.20326 14.0866
269 2 4.10107 1.57392 10.105
270 2 5.08521 2.69862 10.0516
271 2 4.19659 1.32795 14.2996
272 2 5.58197 1.56297 15.0061
273 2 1.70696 4.60743 17.1263
274 2 1.26371 3.37594 16.2754
275 2 2.04902 4.68967 12.8946
276 2 1.36489 3.19847 12.1106
277 2 2.14851 4.93417 10.4118
278 2 3.71131 4.91667 9.82594
279 2 2.17386 0.890526 8.93644
280 2 2.45487 14.1534 9.88394
281 2 5.84598 1.17508 11.1353
282 2 5.92642 1.18581 12.7893
283 2 6.29684 14.0802 16.3732
284 2 5.90517 1.11319 17.0744
285 2 7.33794 4.99326 16.3051
286 2 5.90504 4.92805 15.3889
287 2 15.3504 1.56307 16.479
288 2 1.74087 1.33112 17.3158
289 2 7.82201 1.51281 11.9287
290 2 8.81215 2.69903 12.0342
291 2 13.2632 4.56497 8.82944
292 2 13.058 4.85754 10.6617
293 2 14.9197 5.00975 11.9417
294 2 13.4479 4.92401 12.7722
295 2 13.1396 4.67695 14.9457
296 2 12.7144 3.41092 14.092
297 2 10.2667 14.1678 14.2415
298 2 9.59873 1.03715 13.2771
299 2 11.0896 5.10851 14.0338
300 2 9.59504 4.84524 13.222
301 2 12.6375 2.68458 9.8519
302 2 11.6524 1.51983 9.9356
303 2 13.0515 1.34385 15.1851
304 2 11.8003 1.30861 14.2299
305 2 9.06224 3.26355 16.2923
306 2 9.22972 4.84166 15.5682
307 2 9.12143 4.77494 11.0931
308 2 7.99399 4.73747 11.8494
309 2 9.79604 4.92264 8.85475
310 2 11.292 4.96878 9.82256
311 2 9.74238 1.11559 10.559
312 2 9.64849 1.20567 9.02389
313 2 13.5292 1.18485 10.925
314 2 13.3965 0.947316 12.8291
315 2 13.5842 1.04305 17.0935
316 2 14.1698 14.0087 16.2765
317 2 13.7627 6.2248 16.2282
318 2 14.8079 5.05482 16.269
319 2 7.99146 1.63274 16.3691
320 2 9.5401 1.36132 15.627
321 2 1.73773 8.47841 11.052
322 2 1.28523 9.9177 11.9873
323 2 5.70467 11.8028 10.4711
324 2 4.20854 12.0363 9.92161
325 2 5.71047 12.0287 12.731
326 2 6.30732 13.3446 12.0131
327 2 4.18858 11.8517 14.0805
328 2 5.15214 10.3383 14.1184
329 2 3.3097 8.56677 14.3065
330 2 2.15559 8.36103 13.4723
331 2 2.63591 13.5121 14.0509
332 2 2.01553 12.2858 14.8621
333 2 5.12819 9.85803 9.52189
334 2 5.4539 8.43341 8.92448
335 2 5.59342 8.44504 13.396
336 2 5.71517 8.49302 14.9019
337 2 0.425832 11.8481 16.2936
338 2 1.78698 11.7397 17.0522
339 2 0.453185 11.8478 11.966
340 2 1.80292 12.0647 12.6388
341 2 2.05071 11.8736 9.12323
342 2 1.85206 12.2157 10.5768
343 2 2.47137 6.99704 9.51872
344 2 3.43233 8.21115 9.62617
345 2 7.09668 8.46602 11.8748
346 2 5.7565 8.44529 11.1723
347 2 6.25507 7.13317 16.1103
348 2 7.31276 8.36131 16.4623
349 2 5.8922 11.9332 17.1773
350 2 5.99676 12.0495 15.6108
351 2 1.68343 8.63582 15.5438
352 2 1.1935 10.0736 16.3274
353 2 9.16676 8.27344 12.6945
354 2 9.19358 8.10359 11.2997
355 2 12.7741 10.5477 9.86303
356 2 11.6324 11.8394 9.85921
357 2 13.8386 13.4196 11.9371
358 2 13.4318 12.2774 11.0504
359 2 11.8418 11.8513 14.1935
360 2 13.1827 11.8803 13.2987
361 2 10.9143 8.17947 14.1231
362 2 9.88671 6.8853 14.1939
363 2 9.85519 12.1605 15.035
364 2 9.61077 12.147 13.4761
365 2 12.936 8.54525 8.9799
366 2 13.2908 8.33832 10.5006
367 2 12.95 8.63029 13.2722
368 2 12.6519 9.83891 14.158
369 2 9.14498 10.7302 16.4415
370 2 7.79115 11.7482 16.1741
371 2 7.99047 11.7899 12.1041
372 2 8.80763 10.4302 11.9769
373 2 10.2731 13.3863 9.54994
374 2 9.56471 12.2007 10.5922
375 2 10.1334 6.85025 9.72381
376 2 11.12 8.29148 9.73431
377 2 14.8996 8.31313 11.9801
378 2 14.0746 6.9055 12.0875
379 2 14.8382 8.20647 16.4071
380 2 13.4378 8.26325 15.5214
381 2 13.4597 11.8993 16.9062
382 2 13.5013 12.0616 15.4602
383 2 9.13714 8.45104 15.5248
384 2 9.44773 8.64159 17.2995
ITEM: TIMESTEP
400
ITEM: NUMBER OF ATOMS
384
ITEM: BOX BOUNDS pp pp pp
4.6654049692420863e-01 1.5179137033075790e+01
4.3348055518130035e-01 1.4273664734818711e+01
6.2313843955395143e-01 1.7449898590446061e+01
ITEM: ATOMS id type x y z
1 1 1.40601 1.66024 3.27162
2 1 5.09355 4.4102 1.1119
3 1 6.18173 5.14611 3.23335
4 1 4.82445 4.20877 5.18409
5 1 2.54364 0.579308 5.35317
6 1 2.48345 5.14709 5.28573
7 1 4.91911 1.78878 1.19154
8 1 4.95718 1.64343 5.18068
9 1 1.21826 4.28721 7.42335
10 1 1.17882 4.28517 3.0836
11 1 2.53397 5.08918 1.07523
12 1 2.49025 0.928064 1.06075
13 1 6.14233 0.820274 3.17176
14 1 6.29126 0.811136 7.332
15 1 6.1176 5.12507 7.19388
16 1 1.4783 1.74701 7.28576
17 1 8.54689 1.77644 3.20484
18 1 12.2949 4.18256 0.809069
19 1 13.4229 5.02018 2.92733
20 1 12.2495 4.11369 5.1092
21 1 9.93293 0.705235 5.1549
22 1 9.88052 5.08741 5.20497
23 1 12.2635 1.56064 1.02675
24 1 12.4077 1.56852 5.24501
25 1 8.65446 4.13673 7.28153
26 1 8.53603 4.39082 2.96658
27 1 9.85233 5.17517 0.857561
28 1 9.73278 0.915532 1.12794
29 1 13.6633 0.929601 3.09004
30 1 13.6289 0.821748 7.54083
31 1 13.5437 5.19055 7.16663
32 1 8.76645 1.48514 7.33214
33 1 1.2879 8.56322 3.17315
34 1 4.94813 11.1438 1.09102
35 1 6.24878 12.063 3.06884
36 1 4.97457 11.1978 5.07566
37 1 2.45538 7.71045 5.3737
38 1 2.37066 11.8295 5.25368
39 1 4.83014 8.59412 1.07181
40 1 4.86156 8.59066 5.07802
41 1 1.18501 11.1514 7.36295
42 1 1.18984 11.1348 3.09001
43 1 2.61272 12.1982 1.01603
44 1 2.39825 7.59488 1.00799
45 1 6.27425 7.73185 3.03727
46 1 6.16622 7.78781 7.27858
47 1 5.98875 11.9987 7.32504
48 1 1.11452 8.47857 7.3043
49 1 8.68281 8.6142 3.024
50 1 12.3154 11.1323 1.02859
51 1 13.4604 12.2014 3.16184
52 1 12.399 11.3437 5.28703
53 1 9.83022 7.62905 5.26172
54 1 9.8013 12.0076 5.31603
55 1 12.4102 8.64253 1.11332
56 1 12.218 8.72356 5.09781
57 1 8.49511 11.2269 7.28989
58 1 8.6879 11.1791 3.11008
59 1 9.95179 12.1598 1.05833
60 1 9.85948 7.77967 1.00983
61 1 13.6264 7.67778 3.12404
62 1 13.362 7.78072 7.19891
63 1 13.4918 12.126 7.53222
64 1 8.4918 8.60171 7.26427
65 1 1.42079 1.64941 11.5644
66 1 4.93856 4.17839 9.41321
67 1 6.17205 5.27588 11.5681
68 1 4.97457 4.42861 13.655
69 1 2.54382 0.77637 13.6818
70 1 2.48464 5.1588 13.723
71 1 4.98676 1.62782 9.65758
72 1 4.97766 1.92693 13.7846
73 1 1.16191 4.34314 15.6927
74 1 1.34966 4.18211 11.6758
75 1 2.47544 5.154 9.62977
76 1 2.57901 0.782499 9.51316
77 1 6.21003 0.742851 11.7711
78 1 6.15311 0.771836 15.8991
79 1 6.27103 5.14857 15.8241
80 1 1.18468 1.61178 15.7472
81 1 8.50224 1.72179 11.5518
82 1 12.4345 4.31862 9.44061
83 1 13.5615 5.13097 11.5762
84 1 12.2208 4.15882 13.6043
85 1 9.75858 0.790713 13.5447
86 1 9.80693 4.93486 13.4289
87 1 12.1937 1.71766 9.59131
88 1 12.324 1.51638 13.67
89 1 8.67274 4.12461 15.6486
90 1 8.48752 4.25794 11.3173
91 1 9.92442 5.21031 9.24538
92 1 9.93621 0.746923 9.53941
93 1 13.6757 0.980112 11.5251
94 1 13.6038 0.566698 15.8674
95 1 13.4607 5.17995 15.5384
96 1 8.62545 1.5933 15.6551
97 1 1.20396 8.74116 11.5265
98 1 4.92322 11.2234 9.49835
99 1 6.13229 12.0237 11.6211
100 1 4.87725 11.2435 13.7539
101 1 2.3902 7.73155 13.6282
102 1 2.41918 12.0058 13.5974
103 1 4.7006 8.62365 9.43267
104 1 4.76301 8.72522 13.6742
105 1 1.31714 11.0544 15.8341
106 1 1.23774 11.334 11.5201
107 1 2.40908 12.0946 9.42828
108 1 2.29864 7.71265 9.47015
109 1 6.1167 7.89455 11.4894
110 1 6.1797 7.79321 15.7293
111 1 6.20459 12.0056 15.7638
112 1 1.2413 8.55804 15.7803
113 1 8.63796 8.66302 11.5327
114 1 12.1986 11.2405 9.44758
115 1 13.4592 12.2017 11.4489
116 1 12.1462 11.2969 13.5194
117 1 9.77272 7.63156 13.7402
118 1 9.74471 12.0099 13.487
119 1 12.2349 8.55342 9.44755
120 1 12.2106 8.60154 13.5641
121 1 8.70165 11.3785 15.8594
122 1 8.53708 11.1201 11.5052
123 1 9.75251 11.9846 9.4476
124 1 9.79891 7.71471 9.3956
125 1 13.5507 7.68574 11.5071
126 1 13.512 7.73124 15.7059
127 1 13.5946 11.8114 15.751
128 1 8.56662 8.63669 15.7272
129 2 15.1569 1.29859 3.15472
130 2 1.43897 2.73117 3.38553
131 2 5.45232 4.56032 1.8988
132 2 5.71998 4.70182 17.1588
133 2 5.54072 4.68388 3.97633
134 2 6.27042 6.282 3.25558
135 2 3.81086 4.68366 5.27404
136 2 5.44144 4.56782 5.97952
137 2 2.06764 0.866469 4.48652
138 2 3.44648 1.02737 5.26393
139 2 1.82067 4.81844 6.1745
140 2 2.463 6.18685 5.16511
141 2 5.59725 1.41824 1.9808
142 2 5.00848 2.84304 0.955493
143 2 4.74345 2.55116 5.17454
144 2 5.35757 1.32923 6.03428
145 2 1.72573 4.7835 8.10699
146 2 1.25175 3.2638 7.35117
147 2 1.60701 4.75449 3.94712
148 2 1.88763 4.59322 2.36381
149 2 3.53786 4.77653 0.995879
150 2 2.58602 6.01141 0.928609
151 2 3.53164 1.44157 1.0149
152 2 1.98075 1.32913 1.93566
153 2 5.49638 1.16355 4.08226
154 2 6.28048 13.7253 3.19196
155 2 6.00271 1.14525 8.1539
156 2 6.23273 13.7358 7.35042
157 2 7.11361 4.87743 7.04154
158 2 6.05165 6.15646 7.04808
159 2 1.7118 1.3242 6.54846
160 2 0.503509 1.29233 7.35871
161 2 8.6823 2.74636 3.26427
162 2 7.4773 1.46048 3.25127
163 2 12.205 3.19059 0.898538
164 2 12.5448 4.50504 16.7101
165 2 12.8151 4.71474 2.12721
166 2 14.426 4.78357 3.08872
167 2 12.7098 4.24886 4.25602
168 2 11.2681 4.42375 5.05965
169 2 10.98 0.954868 4.94464
170 2 9.45774 1.07643 4.42244
171 2 9.74504 6.19784 5.22299
172 2 9.26138 4.9843 4.4706
173 2 11.3355 1.23764 0.837653
174 2 13.0866 1.40844 1.8146
175 2 12.3091 2.53172 5.44671
176 2 12.8384 1.27438 6.24126
177 2 9.20425 4.43249 6.25379
178 2 8.65016 3.03185 7.4852
179 2 7.62554 4.71979 3.09311
180 2 9.03854 4.90414 2.19828
181 2 9.44336 4.88957 16.749
182 2 10.8727 4.87207 0.768609
183 2 9.23679 1.11016 17.1749
184 2 9.27642 1.45086 1.89514
185 2 13.2471 1.15581 4.00373
186 2 13.5219 13.554 3.17331
187 2 13.2221 1.19837 8.41885
188 2 13.448 13.4862 7.57615
189 2 13.2407 4.68419 6.40292
190 2 14.5256 5.09874 7.33758
191 2 7.71022 1.25635 7.23868
192 2 9.17798 1.44669 6.31563
193 2 1.77687 8.3326 3.92254
194 2 1.43592 9.57647 3.0385
195 2 4.01499 11.5904 0.87552
196 2 4.80174 10.1416 1.03206
197 2 7.09788 11.6881 3.02148
198 2 5.79372 11.6222 2.33535
199 2 5.40671 11.5223 4.35207
200 2 5.48107 11.4527 5.8218
201 2 1.87481 8.12927 6.24868
202 2 3.28664 8.07367 5.53431
203 2 2.40306 12.8542 5.38852
204 2 3.41292 11.7189 5.31031
205 2 3.89589 8.20616 1.18296
206 2 5.34003 8.25051 16.9805
207 2 5.18289 9.41586 5.00363
208 2 5.48578 8.27226 4.25084
209 2 1.65508 11.2547 6.51517
210 2 1.22612 10.1789 7.3779
211 2 0.565151 11.4944 3.4959
212 2 1.78635 11.5148 3.84611
213 2 1.82144 11.9575 1.79257
214 2 2.72065 13.214 0.867279
215 2 2.04659 8.01609 1.70481
216 2 1.95864 8.03247 16.8785
217 2 7.26039 8.07285 3.25137
218 2 5.76238 8.06351 2.11638
219 2 5.70963 7.95715 6.51742
220 2 7.30291 8.24699 7.17269
221 2 5.72905 11.7178 8.29989
222 2 6.98655 11.6831 7.24057
223 2 15.0243 8.12444 7.51807
224 2 1.52501 8.23753 8.25558
225 2 9.15011 8.29575 3.9264
226 2 9.11103 8.05695 2.3261
227 2 11.2849 11.3752 1.14471
228 2 12.4101 10.157 1.07754
229 2 13.0674 11.7518 2.1945
230 2 13.0869 11.9592 4.05707
231 2 12.8747 11.6584 6.09588
232 2 11.387 11.5279 5.26083
233 2 10.8092 7.89103 5.23479
234 2 9.45029 8.17748 6.07127
235 2 9.98942 12.9142 5.22214
236 2 9.40064 11.5878 4.44293
237 2 12.9634 8.22661 2.10596
238 2 12.7614 8.16261 17.2628
239 2 12.7159 8.24644 4.49431
240 2 12.1878 9.63825 5.07608
241 2 9.12055 11.5015 8.02903
242 2 9.02191 11.5507 6.4235
243 2 8.82193 10.1622 3.046
244 2 9.25866 11.3901 2.27472
245 2 9.97252 13.0139 1.13077
246 2 9.44069 11.9401 16.9835
247 2 10.8852 8.01475 0.9658
248 2 9.98298 6.52914 0.999676
249 2 14.5144 7.89127 3.42425
250 2 13.3881 6.6852 3.03022
251 2 13.3026 6.7668 7.2354
252 2 13.0945 8.04509 6.28649
253 2 14.4705 11.7469 7.50406
254 2 12.9382 11.7782 8.3751
255 2 8.39443 9.57669 7.30753
256 2 8.94008 8.1395 8.22656
257 2 1.84465 1.24209 10.7668
258 2 0.5179 1.34992 11.5609
259 2 5.75316 4.60329 10.2413
260 2 5.24784 4.63051 8.42009
261 2 6.10899 6.33705 11.6099
262 2 5.84989 4.94824 12.4383
263 2 3.96223 4.67059 13.7801
264 2 4.79697 3.49233 13.6526
265 2 2.16777 1.04076 12.7793
266 2 1.93927 1.31285 14.3957
267 2 2.00808 4.78884 14.5023
268 2 2.51866 6.1579 13.7186
269 2 4.21305 1.16152 9.40909
270 2 4.93209 2.72587 9.49652
271 2 4.06523 1.49442 13.7538
272 2 5.37671 1.37857 14.4745
273 2 1.74271 4.50975 16.5128
274 2 1.33509 3.25461 15.8525
275 2 1.74772 4.49192 12.4177
276 2 1.29136 3.14135 11.7425
277 2 2.12334 4.91164 10.6106
278 2 3.51182 4.91021 9.60763
279 2 2.02965 1.16472 8.85115
280 2 2.51627 13.7483 9.47566
281 2 5.75324 1.08207 10.7711
282 2 5.7728 1.1015 12.5959
283 2 5.99627 13.6724 15.9638
284 2 5.54154 1.17597 16.7722
285 2 7.11909 4.64781 15.6443
286 2 5.95584 4.8077 14.941
287 2 14.9954 1.09034 15.7188
288 2 1.5912 1.34459 16.6684
289 2 7.54547 1.4135 11.6852
290 2 8.39382 2.83729 11.4322
291 2 12.8896 4.6728 8.57662
292 2 12.9486 4.55813 10.3532
293 2 14.6328 4.89534 11.585
294 2 13.1506 4.79138 12.5565
295 2 12.873 4.55046 14.127
296 2 12.5479 3.11453 13.6663
297 2 9.63786 13.6454 13.6318
298 2 9.20905 1.00602 12.5664
299 2 10.7354 4.58204 13.4595
300 2 9.22495 4.6874 12.6656
301 2 12.0618 2.64962 9.31776
302 2 11.2886 1.31243 9.54785
303 2 12.7239 1.27112 14.6284
304 2 11.2029 1.41243 13.4557
305 2 8.44411 3.06587 15.6258
306 2 8.88038 4.53852 14.6885
307 2 9.09955 4.92887 10.6047
308 2 7.46451 4.83617 11.4273
309 2 9.33808 4.72426 8.5857
310 2 10.9037 4.93613 9.29243
311 2 9.26136 1.13564 10.2026
312 2 9.54812 1.05023 8.70632
313 2 13.021 1.39273 10.7995
314 2 13.1523 1.43485 12.2876
315 2 13.2622 0.924398 16.7923
316 2 13.5238 13.4036 15.8331
317 2 13.6039 6.27388 15.3863
318 2 14.494 5.00182 15.6585
319 2 7.38891 1.30902 15.8741
320 2 9.03853 1.18001 14.9555
321 2 1.63658 8.44312 10.6534
322 2 1.01272 9.67873 11.4903
323 2 5.48135 11.5161 10.292
324 2 3.98331 11.4164 9.51508
325 2 5.53808 11.5452 12.2682
326 2 6.22421 12.9133 11.6895
327 2 3.94381 11.3503 13.7106
328 2 4.90458 10.2627 13.6272