ITEM: TIMESTEP
0
ITEM: NUMBER OF ATOMS
384
ITEM: BOX BOUNDS pp pp pp
0.0000000000000000e+00 1.5645677530000000e+01
0.0000000000000000e+00 1.4707145290000000e+01
0.0000000000000000e+00 1.8073037029999998e+01
ITEM: ATOMS id type x y z
1 1 1.38 1.76 3.37
2 1 5.2 4.47 1.11
3 1 6.59 5.39 3.31
4 1 5.28 4.49 5.56
5 1 2.59 0.84 5.67
6 1 2.69 5.43 5.56
7 1 5.2 1.71 1.07
8 1 5.2 1.73 5.58
9 1 1.32 4.61 7.82
10 1 1.3 4.52 3.36
11 1 2.61 5.41 1.1
12 1 2.59 0.82 1.07
13 1 6.54 0.87 3.33
14 1 6.54 0.88 7.83
15 1 6.51 5.4 7.86
16 1 1.35 1.85 7.92
17 1 9.2 1.76 3.37
18 1 13.05 4.55 1.15
19 1 14.35 5.46 3.4
20 1 13.1 4.49 5.66
21 1 10.41 0.84 5.67
22 1 10.51 5.43 5.65
23 1 13.07 1.79 1.07
24 1 13.02 1.73 5.58
25 1 9.15 4.61 7.91
26 1 9.2 4.52 3.4
27 1 10.45 5.49 1.15
28 1 10.49 0.82 1.12
29 1 14.36 0.87 3.33
30 1 14.36 0.88 7.83
31 1 14.36 5.48 7.9
32 1 9.17 1.85 7.92
33 1 1.3 9.11 3.32
34 1 5.3 11.9 1.11
35 1 6.53 12.81 3.4
36 1 5.2 11.84 5.61
37 1 2.59 8.19 5.58
38 1 2.61 12.79 5.61
39 1 5.25 9.14 1.16
40 1 5.2 9.08 5.67
41 1 1.32 11.96 7.91
42 1 1.38 11.87 3.31
43 1 2.69 12.77 1.06
44 1 2.67 8.17 1.12
45 1 6.49 8.14 3.42
46 1 6.49 8.16 7.92
47 1 6.53 12.83 7.81
48 1 1.35 9.21 7.83
49 1 9.09 9.19 3.37
50 1 13.13 11.9 1.11
51 1 14.44 12.82 3.35
52 1 13.1 11.84 5.56
53 1 10.41 8.19 5.58
54 1 10.51 12.79 5.65
55 1 12.99 9.14 1.12
56 1 13.02 9.08 5.67
57 1 9.12 11.89 7.86
58 1 9.15 11.95 3.4
59 1 10.51 12.77 1.15
60 1 10.38 8.25 1.12
61 1 14.29 8.22 3.37
62 1 14.36 8.24 7.92
63 1 14.36 12.83 7.81
64 1 9.12 9.13 7.83
65 1 1.35 1.83 12.45
66 1 5.2 4.47 10.14
67 1 6.59 5.39 12.34
68 1 5.3 4.56 14.65
69 1 2.67 0.84 14.66
70 1 2.69 5.43 14.6
71 1 5.28 1.71 10.15
72 1 5.25 1.81 14.61
73 1 1.32 4.61 16.85
74 1 1.32 4.59 12.35
75 1 2.63 5.49 10.09
76 1 2.64 0.89 10.2
77 1 6.57 0.79 12.41
78 1 6.54 0.88 16.87
79 1 6.53 5.48 16.94
80 1 1.35 1.85 16.86
81 1 9.2 1.76 12.41
82 1 13.02 4.47 10.14
83 1 14.35 5.46 12.34
84 1 13.05 4.57 14.6
85 1 10.46 0.91 14.71
86 1 10.46 5.51 14.69
87 1 13.1 1.71 10.15
88 1 13.07 1.81 14.61
89 1 9.15 4.61 16.94
90 1 9.2 4.52 12.44
91 1 10.45 5.49 10.18
92 1 10.49 0.82 10.16
93 1 14.39 0.79 12.41
94 1 14.36 0.88 16.87
95 1 14.33 5.4 16.89
96 1 9.17 1.85 16.96
97 1 1.3 9.11 12.45
98 1 5.28 11.83 10.1
99 1 6.59 12.74 12.34
100 1 5.3 11.92 14.65
101 1 2.59 8.19 14.71
102 1 2.69 12.79 14.6
103 1 5.2 9.07 10.2
104 1 5.17 9.16 14.66
105 1 1.38 11.89 16.85
106 1 1.38 11.87 12.35
107 1 2.71 12.84 10.14
108 1 2.56 8.25 10.16
109 1 6.49 8.14 12.46
110 1 6.46 8.24 16.91
111 1 6.61 12.83 16.89
112 1 1.3 9.13 16.96
113 1 9.09 9.19 12.41
114 1 13.13 11.9 10.14
115 1 14.41 12.74 12.44
116 1 13.1 11.84 14.69
117 1 10.38 8.27 14.66
118 1 10.53 12.86 14.64
119 1 12.99 9.14 10.15
120 1 13.02 9.08 14.7
121 1 9.23 11.96 16.9
122 1 9.23 11.95 12.39
123 1 10.51 12.77 10.09
124 1 10.38 8.25 10.16
125 1 14.29 8.22 12.41
126 1 14.31 8.16 16.96
127 1 14.44 12.83 16.89
128 1 9.09 9.21 16.91
129 2 0.46 1.48 3.37
130 2 1.33 2.71 3.37
131 2 5.68 4.81 1.86
132 2 5.67 4.81 0.35
133 2 6.13 5.1 4.1
134 2 6.56 6.34 3.34
135 2 4.38 4.84 5.6
136 2 5.7 4.83 6.36
137 2 2.17 1.18 4.88
138 2 3.49 1.17 5.63
139 2 2.23 5.15 6.35
140 2 2.65 6.39 5.59
141 2 5.65 1.43 1.86
142 2 5.23 2.67 1.1
143 2 5.23 2.69 5.61
144 2 5.65 1.45 6.37
145 2 1.78 4.88 8.61
146 2 1.33 3.65 7.85
147 2 1.78 4.85 4.11
148 2 1.78 4.85 2.6
149 2 3.52 5.14 1.1
150 2 2.64 6.37 1.11
151 2 3.49 1.15 1.11
152 2 2.17 1.16 1.87
153 2 6.09 1.14 4.12
154 2 6.53 14.6171 3.37
155 2 6.09 1.15 8.63
156 2 6.53 14.6371 7.86
157 2 7.43 5.14 7.86
158 2 6.53 6.36 7.86
159 2 1.77 1.51 7.13
160 2 0.46 1.51 7.89
161 2 9.16 2.71 3.37
162 2 8.28 1.48 3.37
163 2 13.06 3.59 1.12
164 2 13.5 4.82 0.36
165 2 13.94 5.12 2.61
166 2 15.25 5.14 3.36
167 2 13.52 4.82 4.86
168 2 12.21 4.84 5.62
169 2 11.31 1.17 5.63
170 2 10 1.18 4.88
171 2 10.47 6.39 5.62
172 2 10.05 5.15 4.86
173 2 12.18 1.46 1.11
174 2 13.49 1.45 1.86
175 2 13.05 2.69 5.61
176 2 13.48 1.45 6.37
177 2 9.61 4.88 7.11
178 2 9.16 3.65 7.88
179 2 8.3 4.84 3.36
180 2 9.61 4.85 2.61
181 2 10.04 5.17 0.35
182 2 11.35 5.14 1.11
183 2 10.02 1.16 0.36
184 2 10.02 1.16 1.88
185 2 13.91 1.14 4.12
186 2 14.35 14.6171 3.37
187 2 13.91 1.15 8.63
188 2 14.36 14.6371 7.86
189 2 13.94 5.14 7.11
190 2 15.26 5.16 7.86
191 2 8.28 1.51 7.89
192 2 9.59 1.51 7.13
193 2 1.75 8.83 4.12
194 2 1.33 10.07 3.36
195 2 4.39 12.19 1.1
196 2 5.25 10.94 1.11
197 2 7.43 12.49 3.36
198 2 6.12 12.48 2.61
199 2 5.68 12.17 4.85
200 2 5.68 12.18 6.37
201 2 2.17 8.54 6.37
202 2 3.49 8.52 5.61
203 2 2.64 13.74 5.61
204 2 3.52 12.51 5.61
205 2 4.35 8.81 1.13
206 2 5.66 8.81 0.36
207 2 5.23 10.04 5.63
208 2 5.65 8.8 4.88
209 2 1.78 12.24 7.11
210 2 1.34 11.01 7.88
211 2 0.48 12.2 3.35
212 2 1.79 12.21 4.11
213 2 2.23 12.49 1.85
214 2 2.65 13.72 1.09
215 2 2.19 8.52 1.88
216 2 2.2 8.52 0.36
217 2 7.38 8.49 3.39
218 2 6.07 8.48 2.63
219 2 6.07 8.5 7.13
220 2 7.38 8.51 7.89
221 2 6.12 12.49 8.61
222 2 7.43 12.51 7.85
223 2 0.46 8.86 7.86
224 2 1.77 8.86 8.62
225 2 9.57 8.85 4.13
226 2 9.57 8.84 2.61
227 2 12.21 12.19 1.1
228 2 13.08 10.94 1.11
229 2 13.95 12.48 2.6
230 2 13.95 12.48 4.11
231 2 13.52 12.18 6.36
232 2 12.21 12.19 5.6
233 2 11.31 8.52 5.61
234 2 10 8.54 6.37
235 2 10.47 13.74 5.62
236 2 10.05 12.51 4.86
237 2 13.47 8.8 1.87
238 2 13.47 8.81 0.36
239 2 13.48 8.8 4.88
240 2 13.05 10.04 5.63
241 2 9.6 12.22 8.62
242 2 9.6 12.22 7.11
243 2 9.16 10.99 3.37
244 2 9.61 12.22 2.61
245 2 10.48 13.72 1.13
246 2 10.05 12.49 0.35
247 2 11.3 8.53 1.12
248 2 10.43 7.29 1.11
249 2 15.2 8.51 3.37
250 2 14.34 7.26 3.37
251 2 14.36 7.28 7.88
252 2 13.91 8.52 7.13
253 2 15.26 12.51 7.85
254 2 13.94 12.49 8.61
255 2 9.15 10.09 7.86
256 2 9.57 8.85 8.62
257 2 1.77 1.49 11.66
258 2 0.46 1.49 12.42
259 2 5.68 4.81 10.9
260 2 5.67 4.81 9.38
261 2 6.56 6.34 12.38
262 2 6.13 5.1 13.14
263 2 4.39 4.85 14.65
264 2 5.25 3.61 14.65
265 2 2.19 1.18 13.9
266 2 2.19 1.18 15.42
267 2 2.23 5.15 15.39
268 2 2.65 6.39 14.63
269 2 4.36 1.44 10.15
270 2 5.24 2.67 10.15
271 2 4.35 1.48 14.65
272 2 5.66 1.47 15.41
273 2 1.78 4.88 17.65
274 2 1.33 3.65 16.89
275 2 1.78 4.87 13.14
276 2 1.34 3.64 12.39
277 2 2.21 5.16 10.89
278 2 3.52 5.14 10.13
279 2 2.19 1.18 9.41
280 2 2.63 14.6471 10.16
281 2 6.09 1.13 11.65
282 2 6.09 1.14 13.17
283 2 6.53 14.6371 16.9
284 2 6.09 1.15 17.67
285 2 7.43 5.16 16.9
286 2 6.12 5.14 16.15
287 2 0.46 1.51 16.89
288 2 1.77 1.51 17.66
289 2 8.28 1.48 12.41
290 2 9.16 2.71 12.4
291 2 13.5 4.81 9.38
292 2 13.5 4.81 10.9
293 2 15.25 5.14 12.39
294 2 13.94 5.13 13.14
295 2 13.51 4.84 15.39
296 2 13.06 3.61 14.64
297 2 10.46 14.6671 14.67
298 2 10.01 1.19 13.91
299 2 11.35 5.16 14.65
300 2 10.04 5.17 13.9
301 2 13.07 2.67 10.15
302 2 12.18 1.44 10.15
303 2 13.49 1.47 15.41
304 2 12.18 1.48 14.65
305 2 9.16 3.65 16.91
306 2 9.61 4.88 16.15
307 2 9.61 4.85 11.64
308 2 8.3 4.84 12.4
309 2 10.04 5.17 9.39
310 2 11.35 5.14 10.15
311 2 10.02 1.16 10.91
312 2 10.02 1.16 9.4
313 2 13.92 1.13 11.65
314 2 13.92 1.14 13.17
315 2 13.91 1.15 17.67
316 2 14.36 14.6371 16.9
317 2 14.36 6.36 16.9
318 2 15.25 5.14 16.9
319 2 8.28 1.51 16.93
320 2 9.59 1.51 16.17
321 2 1.75 8.83 11.66
322 2 1.33 10.07 12.41
323 2 5.7 12.16 10.89
324 2 4.38 12.17 10.13
325 2 6.13 12.46 13.14
326 2 6.56 13.7 12.38
327 2 4.39 12.21 14.65
328 2 5.25 10.96 14.65
329 2 3.49 8.52 14.67
330 2 2.17 8.53 13.91
331 2 2.65 13.74 14.63
332 2 2.23 12.5 15.39
333 2 5.22 10.02 10.17
334 2 5.65 8.79 9.4
335 2 5.65 8.81 13.9
336 2 5.65 8.82 15.42
337 2 0.48 12.22 16.89
338 2 1.79 12.22 17.65
339 2 0.48 12.2 12.39
340 2 1.79 12.21 13.14
341 2 2.23 12.52 9.38
342 2 2.23 12.51 10.89
343 2 2.61 7.29 10.15
344 2 3.48 8.53 10.16
345 2 7.38 8.49 12.42
346 2 6.07 8.48 11.66
347 2 6.52 7.28 16.91
348 2 7.37 8.53 16.91
349 2 6.14 12.5 17.65
350 2 6.13 12.5 16.14
351 2 1.75 8.84 16.16
352 2 1.33 10.09 16.92
353 2 9.57 8.85 13.16
354 2 9.57 8.84 11.65
355 2 13.08 10.94 10.15
356 2 12.21 12.19 10.14
357 2 14.37 13.7 12.41
358 2 13.95 12.46 11.65
359 2 12.21 12.19 14.66
360 2 13.52 12.17 13.9
361 2 11.3 8.55 14.66
362 2 10.43 7.31 14.66
363 2 10.05 12.53 15.4
364 2 10.05 12.52 13.89
365 2 13.47 8.81 9.39
366 2 13.47 8.8 10.91
367 2 13.48 8.8 13.91
368 2 13.05 10.04 14.67
369 2 9.19 11.01 16.9
370 2 8.31 12.24 16.9
371 2 8.31 12.22 12.39
372 2 9.19 10.99 12.4
373 2 10.48 13.72 10.13
374 2 10.05 12.49 10.88
375 2 10.43 7.29 10.15
376 2 11.3 8.53 10.16
377 2 15.2 8.51 12.41
378 2 14.34 7.26 12.4
379 2 15.2 8.51 16.93
380 2 13.89 8.5 16.17
381 2 13.96 12.5 17.65
382 2 13.95 12.5 16.14
383 2 9.57 8.86 16.15
384 2 9.56 8.86 17.67
ITEM: TIMESTEP
200
ITEM: NUMBER OF ATOMS
384
ITEM: BOX BOUNDS pp pp pp
2.4136573719089505e-01 1.5404311792809107e+01
2.3499875751976607e-01 1.4472146532480238e+01
3.2049711169290340e-01 1.7752539918307097e+01
ITEM: ATOMS id type x y z
1 1 1.30027 1.72318 3.33335
2 1 5.04356 4.42544 1.03748
3 1 6.35316 5.31459 3.31901
4 1 5.0169 4.33316 5.43558
5 1 2.58467 0.736691 5.39093
6 1 2.47353 5.2859 5.43982
7 1 5.09649 1.80268 1.03754
8 1 5.11575 1.65272 5.49039
9 1 1.24755 4.32815 7.58327
10 1 1.23416 4.36362 3.27738
11 1 2.53128 5.30053 1.1873
12 1 2.52675 0.849973 1.10876
13 1 6.24119 0.869265 3.25843
14 1 6.2909 0.730691 7.67161
15 1 6.34516 5.27939 7.57294
16 1 1.45452 1.6542 7.56969
17 1 8.76729 1.76309 3.19105
18 1 12.7108 4.38837 1.02478
19 1 13.9681 5.23964 3.20291
20 1 12.711 4.39686 5.42043
21 1 10.1416 0.832663 5.38702
22 1 10.1472 5.2133 5.46231
23 1 12.7601 1.71528 1.01119
24 1 12.7338 1.73727 5.28848
25 1 8.89289 4.23235 7.61567
26 1 8.92361 4.4518 3.24111
27 1 10.0954 5.35813 1.06249
28 1 10.1468 0.983585 1.0458
29 1 13.8909 0.762356 3.16574
30 1 13.9846 0.866615 7.61288
31 1 14.0053 5.22677 7.67245
32 1 8.87771 1.59944 7.58725
33 1 1.26681 8.78323 3.2275
34 1 5.02138 11.5079 1.12565
35 1 6.3649 12.4077 3.20762
36 1 5.01612 11.491 5.39707
37 1 2.52608 8.04164 5.39748
38 1 2.48275 12.3087 5.29637
39 1 5.0857 8.86844 1.16432
40 1 5.06639 8.84762 5.40891
41 1 1.33091 11.5877 7.53635
42 1 1.31765 11.4836 3.09877
43 1 2.54384 12.3981 1.0339
44 1 2.57709 7.89773 1.07262
45 1 6.33451 7.96489 3.28782
46 1 6.28145 7.91568 7.58291
47 1 6.25098 12.3841 7.57485
48 1 1.30046 8.85641 7.55352
49 1 8.89628 8.82353 3.28483
50 1 12.6938 11.4967 1.00558
51 1 13.9662 12.2831 3.19318
52 1 12.7325 11.5921 5.40288
53 1 10.0939 7.86911 5.42585
54 1 10.1115 12.336 5.34582
55 1 12.6288 8.84003 1.21919
56 1 12.5619 8.83282 5.37152
57 1 8.75027 11.4002 7.51976
58 1 8.86694 11.4463 3.18058
59 1 10.1231 12.4841 1.08942
60 1 10.1086 8.0814 1.1177
61 1 13.9493 7.97011 3.24423
62 1 13.8538 7.92657 7.49428
63 1 13.9658 12.5712 7.6048
64 1 8.77738 8.76892 7.63248
65 1 1.33152 1.62723 12.0185
66 1 5.03445 4.4249 9.82564
67 1 6.26983 5.3395 11.9311
68 1 5.14005 4.36374 14.1124
69 1 2.6457 0.903544 14.2394
70 1 2.6354 5.29553 14.164
71 1 5.15672 1.77309 9.8579
72 1 5.10725 1.65889 14.1891
73 1 1.37404 4.39566 16.2844
74 1 1.42133 4.39617 11.9838
75 1 2.55288 5.24512 9.69961
76 1 2.56366 0.878693 9.77087
77 1 6.29961 0.833504 11.9852
78 1 6.42398 0.761503 16.3504
79 1 6.33899 5.33961 16.3662
80 1 1.29718 1.70455 16.4203
81 1 8.83267 1.65951 11.9746
82 1 12.7275 4.34518 9.75856
83 1 13.9859 5.31066 11.9507
84 1 12.5685 4.36323 14.0463
85 1 10.2417 0.822764 14.185
86 1 10.0491 5.22333 14.0541
87 1 12.6598 1.78668 9.77192
88 1 12.6729 1.69973 14.1976
89 1 8.83047 4.43441 16.3594
90 1 8.83038 4.39439 11.879
91 1 10.1731 5.28895 9.72744
92 1 10.0982 0.868005 9.81164
93 1 13.8874 0.82657 11.9768
94 1 14.0073 0.681653 16.3068
95 1 13.9931 5.27606 16.2483
96 1 8.95269 1.84 16.3222
97 1 1.23597 8.844 11.8973
98 1 5.06421 11.6018 9.72629
99 1 6.35177 12.3591 11.9303
100 1 5.12595 11.4493 14.1502
101 1 2.62014 8.01587 14.2085
102 1 2.58272 12.376 14.135
103 1 5.01935 8.90352 9.70428
104 1 5.04468 8.8141 14.26
105 1 1.39374 11.4401 16.2699
106 1 1.28791 11.4788 11.9896
107 1 2.51853 12.4253 9.84129
108 1 2.56347 7.9127 9.77088
109 1 6.1819 7.96266 11.8836
110 1 6.35707 7.95405 16.3812
111 1 6.35496 12.3681 16.3744
112 1 1.22352 8.82394 16.3236
113 1 8.83058 8.65253 11.9701
114 1 12.6037 11.5636 9.70592
115 1 13.9075 12.4714 11.9641
116 1 12.787 11.5143 14.1874
117 1 10.0459 7.91254 14.2691
118 1 10.2379 12.4132 14.1833
119 1 12.62 8.90304 9.73487
120 1 12.6429 8.89253 14.2199
121 1 8.89062 11.5961 16.273
122 1 8.96409 11.4628 11.9962
123 1 10.1404 12.3781 9.71755
124 1 10.1361 7.92062 9.77074
125 1 13.8139 7.95272 12.0292
126 1 13.8959 7.9514 16.3296
127 1 14.0542 12.3875 16.3483
128 1 8.81512 8.86163 16.3919
129 2 0.43396 1.37232 3.49234
130 2 1.32334 2.83286 3.35997
131 2 5.53579 4.85391 1.89243
132 2 5.55893 4.63171 17.7077
133 2 6.02725 4.69587 4.06299
134 2 6.26079 6.20624 3.47814
135 2 3.91335 4.57342 5.38597
136 2 5.49452 4.65742 6.34462
137 2 2.02449 1.2344 4.63047
138 2 3.31449 1.36085 5.41882
139 2 2.17539 5.32131 6.4165
140 2 2.73767 6.19907 5.31779
141 2 5.49825 1.35256 1.84626
142 2 5.17891 2.74399 1.0986
143 2 5.04096 2.68062 5.49846
144 2 5.62319 1.42757 6.23584
145 2 1.87105 4.66121 8.5187
146 2 1.50937 3.30908 7.56393
147 2 1.85512 4.76021 3.90572
148 2 1.82422 4.87957 2.58238
149 2 3.59131 4.93058 1.24639
150 2 2.50499 6.28964 1.14941
151 2 3.44932 1.15937 0.857125
152 2 2.19546 1.31348 1.8794
153 2 5.71659 1.13811 4.05592
154 2 6.1999 14.1175 3.31406
155 2 5.82599 1.10932 8.47871
156 2 6.33015 14.0017 7.71159
157 2 7.35962 4.88488 7.32736
158 2 6.38128 6.3399 7.43454
159 2 1.96026 1.16197 6.86992
160 2 0.614581 1.16464 7.55214
161 2 8.72274 2.81236 3.26922
162 2 7.78787 1.40999 3.10022
163 2 12.627 3.28209 0.955369
164 2 13.1029 4.5819 17.613
165 2 13.6238 4.91845 2.3508
166 2 14.8529 4.93136 3.37301
167 2 13.0967 4.76673 4.5773
168 2 11.7545 4.79044 5.06192
169 2 11.1182 1.16182 5.41937
170 2 9.55561 1.40217 4.71156
171 2 9.98463 6.29514 5.41745
172 2 9.55136 4.89581 4.75911
173 2 11.6988 1.60825 1.05185
174 2 13.2745 1.312 1.73798
175 2 12.6361 2.70951 5.37523
176 2 13.166 1.53936 6.24859
177 2 9.4327 4.68459 6.79315
178 2 8.7618 3.23645 7.59732
179 2 7.97804 4.71776 3.33611
180 2 9.37334 4.76427 2.28385
181 2 9.56424 4.98683 17.7212
182 2 11.1596 5.11725 0.871661
183 2 9.45935 1.15171 0.364522
184 2 9.61622 1.63912 1.83693
185 2 13.3979 1.19156 3.91096
186 2 13.9278 14.0547 3.32965
187 2 13.4711 1.45934 8.38143
188 2 13.9662 14.0185 7.61537
189 2 13.6608 4.94339 6.66052
190 2 15.0433 5.01215 7.5124
191 2 8.05556 0.874894 7.53493
192 2 9.33261 1.30211 6.80004
193 2 1.84532 8.64392 4.03922
194 2 1.43673 9.77227 3.0767
195 2 4.10962 11.7266 1.14354
196 2 5.15222 10.5308 1.05187
197 2 7.23928 12.0479 3.30517
198 2 6.00975 12.2133 2.33653
199 2 5.60477 11.7648 4.68928
200 2 5.36721 11.9317 6.18427
201 2 1.95136 8.3672 6.22062
202 2 3.75418 8.40939 5.38801
203 2 2.52429 13.3311 5.18948
204 2 3.34936 12.0182 5.13898
205 2 4.10751 8.53671 1.25126
206 2 5.42125 8.38189 0.37924
207 2 5.15914 9.92892 5.28802
208 2 5.61343 8.4529 4.48589
209 2 2.02532 11.9769 6.85006
210 2 1.14856 10.6261 7.30456
211 2 15.3931 11.8926 3.1426
212 2 1.78796 11.7251 3.8994
213 2 1.94866 12.1231 1.67774
214 2 2.53591 13.3419 1.05183
215 2 2.00953 8.19222 2.11535
216 2 2.11461 8.31363 0.330357
217 2 7.2409 8.44707 3.33728
218 2 5.91618 8.59447 2.6263
219 2 5.76942 8.2213 6.82816
220 2 7.34626 8.35535 7.56386
221 2 5.79157 11.9921 8.3415
222 2 7.30884 11.9147 7.67297
223 2 0.410332 8.33643 7.76138
224 2 1.85261 8.33457 8.3051
225 2 9.43413 8.34117 4.06825
226 2 9.16922 8.59404 2.50043
227 2 11.8099 11.9973 1.10668
228 2 12.6724 10.4773 1.11905
229 2 13.4215 11.8284 2.44542
230 2 13.3992 11.9685 3.90463
231 2 13.3108 11.9939 6.1272
232 2 11.7589 12.0218 5.56327
233 2 11.15 8.10483 5.42947
234 2 9.69386 8.37021 6.27218
235 2 10.2252 13.3435 5.22035
236 2 9.86977 12.1462 4.53627
237 2 13.1661 8.44401 2.03038
238 2 13.1514 8.55094 17.7074
239 2 13.1145 8.5726 4.50737
240 2 12.327 9.92309 5.45719
241 2 9.31611 11.8718 8.14563
242 2 9.12401 11.854 6.60231
243 2 8.9398 10.4896 3.29772
244 2 9.42847 11.7047 2.39534
245 2 9.83428 13.5215 1.1458
246 2 9.86017 12.1803 17.5426
247 2 11.1419 8.31793 1.21711
248 2 10.0462 7.02793 1.10896
249 2 14.9161 8.24941 3.4004
250 2 13.9876 6.99348 3.11166
251 2 13.6359 6.94765 7.6666
252 2 13.4859 8.44862 6.5994
253 2 14.875 12.0949 7.50171
254 2 13.3881 12.0475 8.28754
255 2 8.93358 9.69673 7.40363
256 2 9.22992 8.43218 8.41826
257 2 1.61478 1.22317 11.0327
258 2 0.491549 1.32963 11.9477
259 2 5.54142 4.9161 10.4299
260 2 5.48856 4.81573 9.0703
261 2 6.21994 6.43322 11.8404
262 2 5.88784 5.02932 12.6942
263 2 4.33235 4.65199 13.9288
264 2 5.04717 3.44042 14.1252
265 2 1.97567 1.32772 13.5642
266 2 2.27395 1.17546 15.2131
267 2 2.24858 4.87811 14.9848
268 2 2.49323 6.31349 14.0978
269 2 4.17466 1.52204 9.90432
270 2 5.17827 2.71439 9.873
271 2 4.27173 1.38073 14.2686
272 2 5.70694 1.45126 14.8866
273 2 1.65578 4.64025 17.2114
274 2 1.26831 3.42468 16.2036
275 2 2.18405 4.84228 12.9013
276 2 1.37014 3.35358 11.9579
277 2 2.06743 4.96813 10.5496
278 2 3.48706 4.86547 9.7369
279 2 2.1592 1.12454 8.8673
280 2 2.61919 14.064 9.6345
281 2 5.81557 1.20933 11.2976
282 2 5.92676 1.04136 12.8161
283 2 6.54623 14.1049 16.3987
284 2 6.02026 1.30135 17.1254
285 2 7.21943 5.01232 16.3432
286 2 5.86631 4.87921 15.5787
287 2 0.311741 1.2667 16.4541
288 2 1.63786 1.49571 17.22
289 2 7.9225 1.4348 11.8515
290 2 8.71461 2.62254 11.9143
291 2 13.246 4.81715 9.02115
292 2 13.1018 4.78511 10.769
293 2 15.0211 5.22371 11.9173
294 2 13.5367 4.88152 12.8894
295 2 12.9972 4.88025 14.9196
296 2 12.7486 3.44639 14.1811
297 2 10.3286 14.1293 14.0205
298 2 9.50529 0.980562 13.5125
299 2 10.9972 5.04305 13.8475
300 2 9.65211 5.03277 13.1886
301 2 12.7524 2.86283 9.79863
302 2 11.7352 1.48131 9.88809
303 2 13.0935 1.48545 14.9124
304 2 11.7299 1.49303 14.0556
305 2 8.89408 3.45954 16.4178
306 2 9.20657 4.63626 15.5949
307 2 9.13842 4.76058 10.9072
308 2 7.98464 4.72475 11.8172
309 2 9.83524 4.91914 8.89356
310 2 10.9779 4.78671 9.72536
311 2 9.58434 1.19912 10.6144
312 2 9.76786 1.34458 9.04054
313 2 13.5838 1.33862 11.0013
314 2 13.3865 1.16429 12.7402
315 2 13.5094 1.08466 17.1831
316 2 14.0303 13.8622 16.3333
317 2 13.8594 6.37823 16.2481
318 2 14.9722 4.99697 16.0151
319 2 7.97875 1.49455 16.2432
320 2 9.50066 1.41762 15.5508
321 2 1.58371 8.72531 11.1221
322 2 1.28538 9.74379 11.9746
323 2 5.67383 11.8728 10.3848
324 2 3.98964 11.8798 9.66283
325 2 5.80268 12.0544 12.711
326 2 6.29731 13.3703 12.0328
327 2 4.25401 11.8293 14.1139
328 2 4.99141 10.4613 13.8171
329 2 3.43741 8.48296 14.1211
330 2 1.95019 8.36254 13.359
331 2 2.64168 13.3753 14.0115
332 2 2.02285 12.1048 14.9066
333 2 5.01378 9.8819 9.83925
334 2 5.49591 8.65151 8.87433
335 2 5.67349 8.6361 13.4161
336 2 5.54933 8.7058 15.0204
337 2 0.60713 11.88 16.3753
338 2 1.86165 11.8787 17.1713
339 2 0.378868 11.9029 12.0312
340 2 1.83582 11.8239 12.5671
341 2 2.15363 12.0601 9.06206
342 2 1.86451 12.1164 10.7818
343 2 2.49598 6.9388 9.91714
344 2 3.41334 8.0947 9.40155
345 2 7.05824 8.27234 11.745
346 2 5.72961 8.58977 11.1397
347 2 6.52167 6.96518 16.2853
348 2 7.23476 8.53851 16.4696
349 2 5.82599 11.9763 17.2355
350 2 5.8222 12.0051 15.6123
351 2 1.93375 8.69488 15.6269
352 2 1.23527 9.76578 16.4524
353 2 9.4197 8.25921 12.8175
354 2 9.26466 8.30432 11.1242
355 2 12.8215 10.5766 9.76398
356 2 11.7208 11.7708 9.75162
357 2 13.7544 13.5609 12.0301
358 2 13.3945 12.1449 11.0198
359 2 11.8193 11.9028 14.1433
360 2 13.3794 11.6062 13.3907
361 2 10.8984 8.14268 14.1216
362 2 10.02 6.74953 14.248
363 2 9.6429 11.846 14.9454
364 2 9.65618 12.2075 13.3372
365 2 12.9871 8.60694 8.88062
366 2 13.0886 8.37936 10.5028
367 2 12.9961 8.5552 13.2686
368 2 12.4039 9.8179 14.1835
369 2 9.08962 10.6744 16.3856
370 2 7.98662 11.8274 16.2355
371 2 7.96549 11.84 12.0435
372 2 8.97204 10.5079 12.0807
373 2 10.104 13.3065 9.78853
374 2 9.7703 12.334 10.5504
375 2 10.2962 7.09711 9.70941
376 2 11.0142 8.25421 9.51744
377 2 14.7757 8.39572 11.9687
378 2 13.9173 7.02309 12.1714
379 2 14.8936 8.26907 16.3679
380 2 13.3387 8.3832 15.6935
381 2 13.4518 12.0167 17.2329
382 2 13.4417 12.1677 15.5695
383 2 9.16767 8.62047 15.5445
384 2 9.34291 8.54028 17.2227
ITEM: TIMESTEP
400
ITEM: NUMBER OF ATOMS
384
ITEM: BOX BOUNDS pp pp pp
4.6654049692420863e-01 1.5179137033075790e+01
4.3348055518130035e-01 1.4273664734818711e+01
6.2313843955395143e-01 1.7449898590446061e+01
ITEM: ATOMS id type x y z
1 1 1.44063 1.66912 3.28897
2 1 5.02109 4.45446 1.11238
3 1 6.23274 5.09826 3.29132
4 1 4.84247 4.26934 5.1565
5 1 2.53594 0.540828 5.34223
6 1 2.44416 5.16118 5.31033
7 1 4.83157 1.76225 1.22473
8 1 4.97298 1.55634 5.20923
9 1 1.17728 4.31572 7.44054
10 1 1.18655 4.32208 3.14571
11 1 2.51953 5.03705 0.979578
12 1 2.44254 0.98019 1.12887
13 1 6.18778 0.830073 3.17453
14 1 6.29936 0.845787 7.32649
15 1 6.13727 5.12267 7.1643
16 1 1.39088 1.67945 7.33465
17 1 8.57163 1.79409 3.15005
18 1 12.2192 4.19998 0.755045
19 1 13.4013 5.00493 3.00699
20 1 12.2558 4.10749 5.07401
21 1 9.85803 0.660318 5.13652
22 1 9.82686 5.11727 5.19855
23 1 12.2582 1.56388 1.00538
24 1 12.4287 1.54619 5.28644
25 1 8.6204 4.14033 7.31063
26 1 8.64227 4.35802 2.99767
27 1 9.92712 5.1987 0.883864
28 1 9.76941 0.879232 1.07586
29 1 13.5978 0.935801 3.17808
30 1 13.6159 0.78563 7.52862
31 1 13.5686 5.23228 7.1415
32 1 8.70374 1.51237 7.31497
33 1 1.33515 8.52599 3.14563
34 1 4.95411 11.1461 1.0431
35 1 6.22167 12.0696 2.98299
36 1 4.93889 11.2273 5.13478
37 1 2.45238 7.72355 5.38234
38 1 2.38969 11.8816 5.22271
39 1 4.82568 8.57606 1.10127
40 1 4.91761 8.59872 5.14178
41 1 1.18059 11.0341 7.36667
42 1 1.28886 11.1472 3.05893
43 1 2.59254 12.2142 1.03492
44 1 2.40533 7.63741 0.942814
45 1 6.24684 7.70476 3.12458
46 1 6.12996 7.77647 7.27218
47 1 5.99459 12.025 7.34593
48 1 1.13619 8.43834 7.31691
49 1 8.69695 8.58807 3.08202
50 1 12.2862 11.108 1.13053
51 1 13.453 12.2224 3.16186
52 1 12.3869 11.3766 5.2684
53 1 9.88173 7.57851 5.28567
54 1 9.7793 11.9267 5.24952
55 1 12.3485 8.62915 1.14245
56 1 12.2188 8.78169 5.189
57 1 8.49065 11.1707 7.27143
58 1 8.6631 11.1482 3.12649
59 1 9.98415 12.1602 1.05066
60 1 9.86217 7.7643 1.04997
61 1 13.5582 7.66772 3.09922
62 1 13.3011 7.74003 7.19649
63 1 13.5159 12.1699 7.47495
64 1 8.45208 8.57095 7.29425
65 1 1.42437 1.67116 11.5966
66 1 5.01728 4.2471 9.41342
67 1 6.15642 5.27899 11.58
68 1 4.97837 4.437 13.5653
69 1 2.54776 0.754233 13.7135
70 1 2.48602 5.22525 13.6624
71 1 5.01632 1.70594 9.6572
72 1 4.96075 1.84174 13.7631
73 1 1.15494 4.31226 15.7092
74 1 1.36872 4.18093 11.6939
75 1 2.46307 5.13186 9.61628
76 1 2.57426 0.802259 9.55381
77 1 6.22038 0.701994 11.7204
78 1 6.06844 0.80156 15.9023
79 1 6.34026 5.13825 15.7447
80 1 1.18284 1.63532 15.7263
81 1 8.53121 1.70236 11.5752
82 1 12.3907 4.32779 9.43915
83 1 13.5896 5.13601 11.5615
84 1 12.265 4.15256 13.5809
85 1 9.78393 0.789841 13.5425
86 1 9.75272 4.94264 13.465
87 1 12.2271 1.7237 9.57515
88 1 12.288 1.47346 13.7353
89 1 8.67227 4.06947 15.6232
90 1 8.52732 4.28132 11.2987
91 1 9.87211 5.20432 9.28013
92 1 9.92452 0.70319 9.48193
93 1 13.5672 1.01263 11.5565
94 1 13.6039 0.563149 15.8654
95 1 13.502 5.15689 15.5349
96 1 8.65367 1.50582 15.773
97 1 1.2243 8.71744 11.5503
98 1 4.86461 11.2494 9.5041
99 1 6.16137 11.9995 11.6433
100 1 4.90959 11.2584 13.7547
101 1 2.38131 7.72093 13.5996
102 1 2.41236 12.0399 13.6046
103 1 4.7528 8.638 9.43337
104 1 4.71025 8.68556 13.5724
105 1 1.38008 11.0672 15.793
106 1 1.22904 11.3844 11.4866
107 1 2.43297 12.0977 9.41009
108 1 2.29592 7.67954 9.47949
109 1 6.07296 7.86499 11.5103
110 1 6.20905 7.78815 15.7066
111 1 6.18377 12.0334 15.7681
112 1 1.28859 8.54845 15.7571
113 1 8.7012 8.66504 11.4821
114 1 12.1994 11.2845 9.452
115 1 13.5498 12.2231 11.465
116 1 12.2047 11.2862 13.5227
117 1 9.78748 7.61575 13.74
118 1 9.69859 12.046 13.4703
119 1 12.2791 8.57409 9.5081
120 1 12.229 8.61854 13.5612
121 1 8.69802 11.3198 15.8287
122 1 8.56009 11.1204 11.4965
123 1 9.70816 12.019 9.47145
124 1 9.81512 7.72443 9.46274
125 1 13.5629 7.70385 11.4969
126 1 13.5089 7.79812 15.6789
127 1 13.5702 11.7913 15.7042
128 1 8.54684 8.59326 15.7989
129 2 0.523156 1.40921 3.2964
130 2 1.39714 2.7435 3.29
131 2 5.61274 4.70446 1.87113
132 2 5.76113 4.62922 17.2144
133 2 5.6163 4.85082 4.07529
134 2 6.20881 6.13115 3.28634
135 2 3.8873 4.7628 5.19888
136 2 5.48098 4.66482 5.99434
137 2 2.03769 0.855293 4.37179
138 2 3.32239 1.03738 5.26038
139 2 1.84694 4.92786 6.03483
140 2 2.49015 6.19347 5.41063
141 2 5.38269 1.40873 2.02402
142 2 4.93908 2.69039 0.967746
143 2 4.57395 2.59112 5.14516
144 2 5.33606 1.37968 6.22849
145 2 1.62029 4.72662 8.39141
146 2 1.22138 3.30991 7.45265
147 2 1.5987 4.7056 3.95211
148 2 1.6785 4.66845 2.45956
149 2 3.46236 4.80269 1.07331
150 2 2.49697 5.97428 1.09043
151 2 3.31933 1.37813 1.05434
152 2 2.04954 1.2547 1.89537
153 2 5.63407 1.19324 4.03349
154 2 6.30895 13.6293 3.21437
155 2 6.069 1.20316 8.38263
156 2 6.39251 13.6199 7.41257
157 2 7.17791 4.8416 7.20102
158 2 6.1183 6.16598 6.96672
159 2 1.7216 1.14733 6.43608
160 2 0.617228 0.987602 7.26478
161 2 8.72578 2.85427 3.16803
162 2 7.63261 1.56733 3.15211
163 2 11.913 3.25031 0.849365
164 2 12.6265 4.38644 16.8141
165 2 12.8023 4.70427 2.1431
166 2 14.2853 4.60991 2.81041
167 2 12.7043 4.40415 4.36245
168 2 11.1883 4.5561 5.18779
169 2 10.6283 1.24685 5.1359
170 2 9.34822 1.10047 4.32767
171 2 9.72444 6.06425 5.18863
172 2 9.45793 4.94536 4.23362
173 2 11.2009 1.13159 1.0381
174 2 12.6122 1.50769 1.83114
175 2 12.3054 2.56295 5.39233
176 2 12.8768 1.29622 6.02607
177 2 8.98506 4.23455 6.46002
178 2 8.65721 3.08456 7.30381
179 2 7.76337 4.67443 3.10578
180 2 9.06797 4.87575 2.2233
181 2 9.39233 4.80943 16.9861
182 2 10.8974 4.73796 0.790974
183 2 9.22104 1.1787 17.0804
184 2 9.39412 1.42011 1.83499
185 2 13.4214 1.19435 4.10827
186 2 13.4142 13.7922 3.1162
187 2 13.13 1.02247 8.21471
188 2 13.6615 13.5436 7.70795
189 2 13.2525 4.50033 6.44861
190 2 14.6352 4.92608 7.38451
191 2 7.7149 1.41928 7.01007
192 2 9.31919 1.14187 6.6111
193 2 1.99217 8.32924 3.9879
194 2 1.26865 9.4912 3.1391
195 2 3.95917 11.4374 0.863777
196 2 4.92705 10.1598 1.03798
197 2 7.23936 11.9067 2.94061
198 2 5.74591 11.6028 2.23671
199 2 5.6897 11.5582 4.43661
200 2 5.29861 11.6383 5.95651
201 2 1.99111 7.94832 6.20227
202 2 3.47235 7.97484 5.47302
203 2 2.31513 12.7438 5.23041
204 2 3.51289 11.5728 5.20888
205 2 3.95004 8.10282 1.07078
206 2 5.24889 8.19858 17.1319
207 2 4.89903 9.62531 4.88828
208 2 5.54359 8.08152 4.47078
209 2 1.77204 11.316 6.50134
210 2 0.908495 10.222 7.44956
211 2 14.9733 11.5898 3.10506
212 2 1.80575 11.4308 3.79956
213 2 1.92572 11.9065 1.64561
214 2 2.58537 13.0848 1.13205
215 2 2.03725 7.9824 1.61254
216 2 1.97312 7.89096 16.8895
217 2 7.28624 8.00119 3.16716
218 2 5.8772 7.97185 2.09765
219 2 5.71431 7.97734 6.40657
220 2 7.08564 8.2305 7.34533
221 2 5.64716 11.8151 8.20178
222 2 6.98164 11.7518 7.39075
223 2 14.9984 8.03567 7.32487
224 2 1.44555 8.31345 8.41149
225 2 9.09531 8.30886 4.02344
226 2 9.20165 8.11096 2.15325
227 2 11.2786 11.6047 1.00312
228 2 12.4887 10.1805 0.976432
229 2 13.0225 11.7056 2.39258
230 2 13.1649 11.747 4.04892
231 2 12.971 11.706 6.18024
232 2 11.4159 11.4363 5.20433
233 2 10.7833 8.05483 5.27876
234 2 9.35863 7.89533 6.01281
235 2 9.86672 12.985 5.24866
236 2 9.53642 11.5694 4.47308
237 2 12.8071 8.11349 1.86838
238 2 12.6763 8.21512 16.993
239 2 12.6341 8.27229 4.51447
240 2 12.3485 9.79763 5.00069
241 2 8.92501 11.3083 8.13926
242 2 8.86694 11.5953 6.51023
243 2 8.43673 10.1978 3.04841
244 2 9.26943 11.6346 2.43258
245 2 9.74345 13.1105 0.964092
246 2 9.48138 11.8231 17.0351
247 2 10.8546 8.09132 0.900632
248 2 10.0233 6.59567 0.893782
249 2 14.4028 7.81585 3.3453
250 2 13.6501 6.74652 3.1348
251 2 13.4363 6.72331 7.1613
252 2 12.9486 8.15333 6.28741
253 2 14.4099 11.6471 7.43817
254 2 13.0177 11.7205 8.28693
255 2 8.42614 9.72063 7.48639
256 2 9.02394 8.23936 8.12631
257 2 1.84945 1.39927 10.8195
258 2 15.154 1.52295 11.7154
259 2 5.31378 4.66979 10.1416
260 2 5.21915 4.77362 8.5225
261 2 6.08675 6.32041 11.4221
262 2 5.68585 5.04356 12.5149
263 2 3.86287 4.47008 13.574
264 2 5.01941 3.27209 13.8031
265 2 2.17058 1.0692 12.8032
266 2 1.84902 1.07063 14.4096
267 2 2.07085 4.8388 14.3725
268 2 2.42261 6.27047 13.6509
269 2 4.10247 1.20651 9.46057
270 2 5.09743 2.75576 9.59417
271 2 4.02344 1.59029 13.8977
272 2 5.45755 1.3122 14.5053
273 2 1.76081 4.61084 16.5342
274 2 1.25982 3.34917 15.6934
275 2 1.87505 4.537 12.5994
276 2 1.58848 3.27779 11.6998
277 2 2.02765 4.77795 10.3435
278 2 3.41749 4.70753 9.53566
279 2 2.21723 1.19949 8.64129
280 2 2.8434 13.6579 9.34142
281 2 5.96429 1.18195 10.7757
282 2 5.77976 1.17429 12.5608
283 2 6.30131 13.6526 16.0827
284 2 5.65905 1.06609 16.6491
285 2 7.1957 4.69948 15.6856
286 2 5.93412 4.89275 14.8855
287 2 14.9765 1.06083 15.69
288 2 1.58613 1.31972 16.6784
289 2 7.52068 1.57446 11.8446
290 2 8.50868 2.5728 11.4213
291 2 12.7091 4.53676 8.44834
292 2 13.0062 4.51929 10.1576
293 2 14.5552 4.90495 11.5565
294 2 13.23 4.72632 12.312
295 2 12.7996 4.62832 14.2136
296 2 12.2683 3.13171 13.6995
297 2 9.65123 13.649 13.3958
298 2 9.37771 1.10565 12.7714
299 2 10.6411 4.62699 13.3606
300 2 9.372 4.83668 12.5642
301 2 12.0822 2.64157 9.3312
302 2 11.2583 1.24964 9.76776
303 2 12.7217 1.35389 14.6177
304 2 11.3162 1.32254 13.7035
305 2 8.48719 3.13388 15.557
306 2 9.1871 4.43839 14.6616
307 2 9.12646 4.85433 10.682
308 2 7.58892 4.76182 11.3662
309 2 9.43288 4.94693 8.52505
310 2 10.7898 5.01124 9.25366
311 2 9.44408 1.16769 10.2375
312 2 9.57382 1.13219 8.63718
313 2 13.0071 1.3249 10.7208
314 2 13.2552 1.3952 12.3735
315 2 13.4467 1.14109 16.7594
316 2 13.3715 13.3266 15.872
317 2 13.366 6.16443 15.6067
318 2 14.4027 4.8819 15.6632
319 2 7.55567 1.13271 15.8745
320 2 9.13744 1.21307 14.9035
321 2 1.69923 8.35905 10.8116
322 2 1.22896 9.6711 11.5547
323 2 5.43433 11.4479 10.3855
324 2 3.9287 11.3689 9.62186
325 2 5.59648 11.7379 12.4772
326 2 6.22855 12.8451 11.7907
327 2 3.99959 11.3958 13.6424
328 2 4.89321 10.2038 13.6241
329 2 3.39919 8.08233 13.5304