ITEM: TIMESTEP
0
ITEM: NUMBER OF ATOMS
384
ITEM: BOX BOUNDS pp pp pp
0.0000000000000000e+00 1.5645677530000000e+01
0.0000000000000000e+00 1.4707145290000000e+01
0.0000000000000000e+00 1.8073037029999998e+01
ITEM: ATOMS id type x y z
1 1 1.38 1.76 3.37
2 1 5.2 4.47 1.11
3 1 6.59 5.39 3.31
4 1 5.28 4.49 5.56
5 1 2.59 0.84 5.67
6 1 2.69 5.43 5.56
7 1 5.2 1.71 1.07
8 1 5.2 1.73 5.58
9 1 1.32 4.61 7.82
10 1 1.3 4.52 3.36
11 1 2.61 5.41 1.1
12 1 2.59 0.82 1.07
13 1 6.54 0.87 3.33
14 1 6.54 0.88 7.83
15 1 6.51 5.4 7.86
16 1 1.35 1.85 7.92
17 1 9.2 1.76 3.37
18 1 13.05 4.55 1.15
19 1 14.35 5.46 3.4
20 1 13.1 4.49 5.66
21 1 10.41 0.84 5.67
22 1 10.51 5.43 5.65
23 1 13.07 1.79 1.07
24 1 13.02 1.73 5.58
25 1 9.15 4.61 7.91
26 1 9.2 4.52 3.4
27 1 10.45 5.49 1.15
28 1 10.49 0.82 1.12
29 1 14.36 0.87 3.33
30 1 14.36 0.88 7.83
31 1 14.36 5.48 7.9
32 1 9.17 1.85 7.92
33 1 1.3 9.11 3.32
34 1 5.3 11.9 1.11
35 1 6.53 12.81 3.4
36 1 5.2 11.84 5.61
37 1 2.59 8.19 5.58
38 1 2.61 12.79 5.61
39 1 5.25 9.14 1.16
40 1 5.2 9.08 5.67
41 1 1.32 11.96 7.91
42 1 1.38 11.87 3.31
43 1 2.69 12.77 1.06
44 1 2.67 8.17 1.12
45 1 6.49 8.14 3.42
46 1 6.49 8.16 7.92
47 1 6.53 12.83 7.81
48 1 1.35 9.21 7.83
49 1 9.09 9.19 3.37
50 1 13.13 11.9 1.11
51 1 14.44 12.82 3.35
52 1 13.1 11.84 5.56
53 1 10.41 8.19 5.58
54 1 10.51 12.79 5.65
55 1 12.99 9.14 1.12
56 1 13.02 9.08 5.67
57 1 9.12 11.89 7.86
58 1 9.15 11.95 3.4
59 1 10.51 12.77 1.15
60 1 10.38 8.25 1.12
61 1 14.29 8.22 3.37
62 1 14.36 8.24 7.92
63 1 14.36 12.83 7.81
64 1 9.12 9.13 7.83
65 1 1.35 1.83 12.45
66 1 5.2 4.47 10.14
67 1 6.59 5.39 12.34
68 1 5.3 4.56 14.65
69 1 2.67 0.84 14.66
70 1 2.69 5.43 14.6
71 1 5.28 1.71 10.15
72 1 5.25 1.81 14.61
73 1 1.32 4.61 16.85
74 1 1.32 4.59 12.35
75 1 2.63 5.49 10.09
76 1 2.64 0.89 10.2
77 1 6.57 0.79 12.41
78 1 6.54 0.88 16.87
79 1 6.53 5.48 16.94
80 1 1.35 1.85 16.86
81 1 9.2 1.76 12.41
82 1 13.02 4.47 10.14
83 1 14.35 5.46 12.34
84 1 13.05 4.57 14.6
85 1 10.46 0.91 14.71
86 1 10.46 5.51 14.69
87 1 13.1 1.71 10.15
88 1 13.07 1.81 14.61
89 1 9.15 4.61 16.94
90 1 9.2 4.52 12.44
91 1 10.45 5.49 10.18
92 1 10.49 0.82 10.16
93 1 14.39 0.79 12.41
94 1 14.36 0.88 16.87
95 1 14.33 5.4 16.89
96 1 9.17 1.85 16.96
97 1 1.3 9.11 12.45
98 1 5.28 11.83 10.1
99 1 6.59 12.74 12.34
100 1 5.3 11.92 14.65
101 1 2.59 8.19 14.71
102 1 2.69 12.79 14.6
103 1 5.2 9.07 10.2
104 1 5.17 9.16 14.66
105 1 1.38 11.89 16.85
106 1 1.38 11.87 12.35
107 1 2.71 12.84 10.14
108 1 2.56 8.25 10.16
109 1 6.49 8.14 12.46
110 1 6.46 8.24 16.91
111 1 6.61 12.83 16.89
112 1 1.3 9.13 16.96
113 1 9.09 9.19 12.41
114 1 13.13 11.9 10.14
115 1 14.41 12.74 12.44
116 1 13.1 11.84 14.69
117 1 10.38 8.27 14.66
118 1 10.53 12.86 14.64
119 1 12.99 9.14 10.15
120 1 13.02 9.08 14.7
121 1 9.23 11.96 16.9
122 1 9.23 11.95 12.39
123 1 10.51 12.77 10.09
124 1 10.38 8.25 10.16
125 1 14.29 8.22 12.41
126 1 14.31 8.16 16.96
127 1 14.44 12.83 16.89
128 1 9.09 9.21 16.91
129 2 0.46 1.48 3.37
130 2 1.33 2.71 3.37
131 2 5.68 4.81 1.86
132 2 5.67 4.81 0.35
133 2 6.13 5.1 4.1
134 2 6.56 6.34 3.34
135 2 4.38 4.84 5.6
136 2 5.7 4.83 6.36
137 2 2.17 1.18 4.88
138 2 3.49 1.17 5.63
139 2 2.23 5.15 6.35
140 2 2.65 6.39 5.59
141 2 5.65 1.43 1.86
142 2 5.23 2.67 1.1
143 2 5.23 2.69 5.61
144 2 5.65 1.45 6.37
145 2 1.78 4.88 8.61
146 2 1.33 3.65 7.85
147 2 1.78 4.85 4.11
148 2 1.78 4.85 2.6
149 2 3.52 5.14 1.1
150 2 2.64 6.37 1.11
151 2 3.49 1.15 1.11
152 2 2.17 1.16 1.87
153 2 6.09 1.14 4.12
154 2 6.53 14.6171 3.37
155 2 6.09 1.15 8.63
156 2 6.53 14.6371 7.86
157 2 7.43 5.14 7.86
158 2 6.53 6.36 7.86
159 2 1.77 1.51 7.13
160 2 0.46 1.51 7.89
161 2 9.16 2.71 3.37
162 2 8.28 1.48 3.37
163 2 13.06 3.59 1.12
164 2 13.5 4.82 0.36
165 2 13.94 5.12 2.61
166 2 15.25 5.14 3.36
167 2 13.52 4.82 4.86
168 2 12.21 4.84 5.62
169 2 11.31 1.17 5.63
170 2 10 1.18 4.88
171 2 10.47 6.39 5.62
172 2 10.05 5.15 4.86
173 2 12.18 1.46 1.11
174 2 13.49 1.45 1.86
175 2 13.05 2.69 5.61
176 2 13.48 1.45 6.37
177 2 9.61 4.88 7.11
178 2 9.16 3.65 7.88
179 2 8.3 4.84 3.36
180 2 9.61 4.85 2.61
181 2 10.04 5.17 0.35
182 2 11.35 5.14 1.11
183 2 10.02 1.16 0.36
184 2 10.02 1.16 1.88
185 2 13.91 1.14 4.12
186 2 14.35 14.6171 3.37
187 2 13.91 1.15 8.63
188 2 14.36 14.6371 7.86
189 2 13.94 5.14 7.11
190 2 15.26 5.16 7.86
191 2 8.28 1.51 7.89
192 2 9.59 1.51 7.13
193 2 1.75 8.83 4.12
194 2 1.33 10.07 3.36
195 2 4.39 12.19 1.1
196 2 5.25 10.94 1.11
197 2 7.43 12.49 3.36
198 2 6.12 12.48 2.61
199 2 5.68 12.17 4.85
200 2 5.68 12.18 6.37
201 2 2.17 8.54 6.37
202 2 3.49 8.52 5.61
203 2 2.64 13.74 5.61
204 2 3.52 12.51 5.61
205 2 4.35 8.81 1.13
206 2 5.66 8.81 0.36
207 2 5.23 10.04 5.63
208 2 5.65 8.8 4.88
209 2 1.78 12.24 7.11
210 2 1.34 11.01 7.88
211 2 0.48 12.2 3.35
212 2 1.79 12.21 4.11
213 2 2.23 12.49 1.85
214 2 2.65 13.72 1.09
215 2 2.19 8.52 1.88
216 2 2.2 8.52 0.36
217 2 7.38 8.49 3.39
218 2 6.07 8.48 2.63
219 2 6.07 8.5 7.13
220 2 7.38 8.51 7.89
221 2 6.12 12.49 8.61
222 2 7.43 12.51 7.85
223 2 0.46 8.86 7.86
224 2 1.77 8.86 8.62
225 2 9.57 8.85 4.13
226 2 9.57 8.84 2.61
227 2 12.21 12.19 1.1
228 2 13.08 10.94 1.11
229 2 13.95 12.48 2.6
230 2 13.95 12.48 4.11
231 2 13.52 12.18 6.36
232 2 12.21 12.19 5.6
233 2 11.31 8.52 5.61
234 2 10 8.54 6.37
235 2 10.47 13.74 5.62
236 2 10.05 12.51 4.86
237 2 13.47 8.8 1.87
238 2 13.47 8.81 0.36
239 2 13.48 8.8 4.88
240 2 13.05 10.04 5.63
241 2 9.6 12.22 8.62
242 2 9.6 12.22 7.11
243 2 9.16 10.99 3.37
244 2 9.61 12.22 2.61
245 2 10.48 13.72 1.13
246 2 10.05 12.49 0.35
247 2 11.3 8.53 1.12
248 2 10.43 7.29 1.11
249 2 15.2 8.51 3.37
250 2 14.34 7.26 3.37
251 2 14.36 7.28 7.88
252 2 13.91 8.52 7.13
253 2 15.26 12.51 7.85
254 2 13.94 12.49 8.61
255 2 9.15 10.09 7.86
256 2 9.57 8.85 8.62
257 2 1.77 1.49 11.66
258 2 0.46 1.49 12.42
259 2 5.68 4.81 10.9
260 2 5.67 4.81 9.38
261 2 6.56 6.34 12.38
262 2 6.13 5.1 13.14
263 2 4.39 4.85 14.65
264 2 5.25 3.61 14.65
265 2 2.19 1.18 13.9
266 2 2.19 1.18 15.42
267 2 2.23 5.15 15.39
268 2 2.65 6.39 14.63
269 2 4.36 1.44 10.15
270 2 5.24 2.67 10.15
271 2 4.35 1.48 14.65
272 2 5.66 1.47 15.41
273 2 1.78 4.88 17.65
274 2 1.33 3.65 16.89
275 2 1.78 4.87 13.14
276 2 1.34 3.64 12.39
277 2 2.21 5.16 10.89
278 2 3.52 5.14 10.13
279 2 2.19 1.18 9.41
280 2 2.63 14.6471 10.16
281 2 6.09 1.13 11.65
282 2 6.09 1.14 13.17
283 2 6.53 14.6371 16.9
284 2 6.09 1.15 17.67
285 2 7.43 5.16 16.9
286 2 6.12 5.14 16.15
287 2 0.46 1.51 16.89
288 2 1.77 1.51 17.66
289 2 8.28 1.48 12.41
290 2 9.16 2.71 12.4
291 2 13.5 4.81 9.38
292 2 13.5 4.81 10.9
293 2 15.25 5.14 12.39
294 2 13.94 5.13 13.14
295 2 13.51 4.84 15.39
296 2 13.06 3.61 14.64
297 2 10.46 14.6671 14.67
298 2 10.01 1.19 13.91
299 2 11.35 5.16 14.65
300 2 10.04 5.17 13.9
301 2 13.07 2.67 10.15
302 2 12.18 1.44 10.15
303 2 13.49 1.47 15.41
304 2 12.18 1.48 14.65
305 2 9.16 3.65 16.91
306 2 9.61 4.88 16.15
307 2 9.61 4.85 11.64
308 2 8.3 4.84 12.4
309 2 10.04 5.17 9.39
310 2 11.35 5.14 10.15
311 2 10.02 1.16 10.91
312 2 10.02 1.16 9.4
313 2 13.92 1.13 11.65
314 2 13.92 1.14 13.17
315 2 13.91 1.15 17.67
316 2 14.36 14.6371 16.9
317 2 14.36 6.36 16.9
318 2 15.25 5.14 16.9
319 2 8.28 1.51 16.93
320 2 9.59 1.51 16.17
321 2 1.75 8.83 11.66
322 2 1.33 10.07 12.41
323 2 5.7 12.16 10.89
324 2 4.38 12.17 10.13
325 2 6.13 12.46 13.14
326 2 6.56 13.7 12.38
327 2 4.39 12.21 14.65
328 2 5.25 10.96 14.65
329 2 3.49 8.52 14.67
330 2 2.17 8.53 13.91
331 2 2.65 13.74 14.63
332 2 2.23 12.5 15.39
333 2 5.22 10.02 10.17
334 2 5.65 8.79 9.4
335 2 5.65 8.81 13.9
336 2 5.65 8.82 15.42
337 2 0.48 12.22 16.89
338 2 1.79 12.22 17.65
339 2 0.48 12.2 12.39
340 2 1.79 12.21 13.14
341 2 2.23 12.52 9.38
342 2 2.23 12.51 10.89
343 2 2.61 7.29 10.15
344 2 3.48 8.53 10.16
345 2 7.38 8.49 12.42
346 2 6.07 8.48 11.66
347 2 6.52 7.28 16.91
348 2 7.37 8.53 16.91
349 2 6.14 12.5 17.65
350 2 6.13 12.5 16.14
351 2 1.75 8.84 16.16
352 2 1.33 10.09 16.92
353 2 9.57 8.85 13.16
354 2 9.57 8.84 11.65
355 2 13.08 10.94 10.15
356 2 12.21 12.19 10.14
357 2 14.37 13.7 12.41
358 2 13.95 12.46 11.65
359 2 12.21 12.19 14.66
360 2 13.52 12.17 13.9
361 2 11.3 8.55 14.66
362 2 10.43 7.31 14.66
363 2 10.05 12.53 15.4
364 2 10.05 12.52 13.89
365 2 13.47 8.81 9.39
366 2 13.47 8.8 10.91
367 2 13.48 8.8 13.91
368 2 13.05 10.04 14.67
369 2 9.19 11.01 16.9
370 2 8.31 12.24 16.9
371 2 8.31 12.22 12.39
372 2 9.19 10.99 12.4
373 2 10.48 13.72 10.13
374 2 10.05 12.49 10.88
375 2 10.43 7.29 10.15
376 2 11.3 8.53 10.16
377 2 15.2 8.51 12.41
378 2 14.34 7.26 12.4
379 2 15.2 8.51 16.93
380 2 13.89 8.5 16.17
381 2 13.96 12.5 17.65
382 2 13.95 12.5 16.14
383 2 9.57 8.86 16.15
384 2 9.56 8.86 17.67
ITEM: TIMESTEP
200
ITEM: NUMBER OF ATOMS
384
ITEM: BOX BOUNDS pp pp pp
2.4136573719089505e-01 1.5404311792809107e+01
2.3499875751976607e-01 1.4472146532480238e+01
3.2049711169290340e-01 1.7752539918307097e+01
ITEM: ATOMS id type x y z
1 1 1.32375 1.72433 3.30437
2 1 5.04876 4.41225 1.02257
3 1 6.37134 5.2844 3.28707
4 1 4.99688 4.33392 5.43464
5 1 2.59727 0.698432 5.44831
6 1 2.46372 5.29188 5.4196
7 1 5.09007 1.80836 1.0366
8 1 5.15308 1.61329 5.47079
9 1 1.2685 4.30917 7.5978
10 1 1.25863 4.34937 3.29721
11 1 2.48991 5.31672 1.13051
12 1 2.53111 0.833333 1.08286
13 1 6.28308 0.87962 3.23136
14 1 6.25708 0.780022 7.69765
15 1 6.32144 5.27776 7.5559
16 1 1.49994 1.66501 7.55062
17 1 8.78674 1.78572 3.1976
18 1 12.6513 4.37246 1.0201
19 1 13.9609 5.19768 3.21654
20 1 12.7162 4.36745 5.41497
21 1 10.1392 0.842094 5.38247
22 1 10.151 5.19385 5.4777
23 1 12.7488 1.69486 1.00439
24 1 12.6886 1.7644 5.33592
25 1 8.85815 4.24931 7.58981
26 1 8.88937 4.45089 3.25235
27 1 10.1027 5.34819 1.06439
28 1 10.1835 0.981273 1.07634
29 1 13.899 0.768603 3.18056
30 1 13.9937 0.880786 7.61042
31 1 13.9582 5.2468 7.65567
32 1 8.85804 1.60046 7.56483
33 1 1.3346 8.75813 3.2285
34 1 5.02984 11.48 1.13613
35 1 6.33031 12.3984 3.24664
36 1 4.986 11.5064 5.39335
37 1 2.55032 8.05084 5.4203
38 1 2.43262 12.3083 5.34033
39 1 5.13356 8.8948 1.1679
40 1 5.07586 8.85406 5.378
41 1 1.34143 11.5488 7.53918
42 1 1.31861 11.4767 3.06773
43 1 2.52775 12.3947 1.04609
44 1 2.55865 7.90761 1.07771
45 1 6.33194 7.99803 3.30708
46 1 6.28619 7.88659 7.55256
47 1 6.29082 12.3282 7.58273
48 1 1.29206 8.87365 7.60433
49 1 8.86462 8.79367 3.26944
50 1 12.6976 11.4626 0.979699
51 1 13.9579 12.2806 3.15812
52 1 12.7538 11.5665 5.43459
53 1 10.1072 7.87743 5.46135
54 1 10.1758 12.3266 5.41382
55 1 12.6829 8.82834 1.20863
56 1 12.5741 8.77075 5.33764
57 1 8.75292 11.4053 7.51662
58 1 8.8721 11.4276 3.19561
59 1 10.101 12.4561 1.11988
60 1 10.1005 8.02367 1.11835
61 1 13.9667 7.97716 3.27206
62 1 13.8328 7.90814 7.50934
63 1 13.9645 12.542 7.63004
64 1 8.80587 8.76349 7.60172
65 1 1.34062 1.61898 12.0012
66 1 5.0557 4.43068 9.80603
67 1 6.29219 5.36798 11.9025
68 1 5.15569 4.36166 14.0699
69 1 2.62675 0.893695 14.2457
70 1 2.65454 5.31755 14.1687
71 1 5.19333 1.75996 9.87752
72 1 5.06361 1.66353 14.2221
73 1 1.37049 4.42147 16.3157
74 1 1.40775 4.4403 11.9553
75 1 2.5824 5.22642 9.72351
76 1 2.556 0.922539 9.8005
77 1 6.32499 0.818469 12.0118
78 1 6.3615 0.739986 16.3565
79 1 6.34903 5.3693 16.346
80 1 1.2481 1.69409 16.4276
81 1 8.83235 1.70591 11.9605
82 1 12.7527 4.37875 9.77523
83 1 14.0284 5.29464 11.9366
84 1 12.6345 4.41088 14.0131
85 1 10.1723 0.833135 14.1867
86 1 10.0517 5.23453 14.0632
87 1 12.64 1.79234 9.75004
88 1 12.6519 1.75151 14.1609
89 1 8.84325 4.41322 16.3543
90 1 8.80128 4.38913 11.892
91 1 10.1939 5.29494 9.70185
92 1 10.1417 0.808444 9.79286
93 1 13.8928 0.833565 11.9445
94 1 13.9897 0.725785 16.3622
95 1 13.9634 5.27304 16.2646
96 1 8.91907 1.86704 16.3365
97 1 1.21665 8.84004 11.8912
98 1 5.06996 11.592 9.75705
99 1 6.3584 12.3714 11.9158
100 1 5.12322 11.4773 14.165
101 1 2.57974 8.01384 14.1628
102 1 2.61123 12.4042 14.0829
103 1 4.98944 8.91407 9.70463
104 1 5.04724 8.78757 14.2529
105 1 1.38021 11.462 16.2403
106 1 1.30283 11.4977 11.9934
107 1 2.5078 12.4475 9.85402
108 1 2.52808 7.92269 9.78402
109 1 6.16398 7.95627 11.8518
110 1 6.36327 7.95012 16.3951
111 1 6.33264 12.3376 16.3309
112 1 1.21834 8.78207 16.2976
113 1 8.85792 8.6788 11.9969
114 1 12.6382 11.5551 9.73337
115 1 13.9005 12.4457 11.9725
116 1 12.7792 11.5273 14.1694
117 1 10.0814 7.88569 14.2331
118 1 10.2124 12.4234 14.165
119 1 12.6238 8.87341 9.68542
120 1 12.6092 8.87133 14.2034
121 1 8.88462 11.5944 16.2788
122 1 8.95308 11.4742 12.0044
123 1 10.1009 12.3471 9.71039
124 1 10.1534 7.91711 9.79371
125 1 13.7833 7.9611 12.0403
126 1 13.8536 7.92129 16.3673
127 1 14.0792 12.3935 16.3301
128 1 8.84666 8.869 16.3815
129 2 0.550927 1.40262 3.38091
130 2 1.38779 2.83792 3.29431
131 2 5.5059 4.57736 1.92485
132 2 5.53293 4.91849 17.5583
133 2 5.94923 4.71776 4.14126
134 2 6.31104 6.23502 3.30558
135 2 3.88031 4.52828 5.33127
136 2 5.4465 4.72424 6.38261
137 2 1.97323 1.09446 4.73969
138 2 3.38472 1.27359 5.40283
139 2 2.00717 5.14528 6.3033
140 2 2.78332 6.27635 5.34291
141 2 5.53533 1.30329 1.83682
142 2 5.23597 2.72702 1.15908
143 2 4.93917 2.58109 5.43654
144 2 5.57774 1.34096 6.24558
145 2 1.88325 4.51398 8.50293
146 2 1.37615 3.3558 7.478
147 2 1.83752 4.65318 4.05674
148 2 1.73525 4.84304 2.54276
149 2 3.57173 4.88468 1.18017
150 2 2.56152 6.3309 1.04732
151 2 3.5389 1.19926 1.11564
152 2 2.18111 1.2732 1.88318
153 2 5.76991 1.18482 4.18254
154 2 6.18406 14.1101 3.36765
155 2 5.79083 1.15829 8.42687
156 2 6.20832 14.0252 7.71717
157 2 7.3241 4.94578 7.39288
158 2 6.51419 6.21529 7.29858
159 2 2.05272 1.20193 6.85184
160 2 0.560112 1.3245 7.56756
161 2 8.67362 2.72267 3.31989
162 2 7.75601 1.6166 3.00447
163 2 12.5205 3.36875 0.794278
164 2 13.2385 4.74229 17.7312
165 2 13.6473 4.90279 2.42995
166 2 14.9901 4.93348 3.22519
167 2 13.2047 4.85102 4.603
168 2 11.6724 4.80806 5.16683
169 2 10.9592 1.33399 5.49317
170 2 9.5249 1.30065 4.65349
171 2 10.0152 6.3122 5.43019
172 2 9.53294 4.99489 4.74213
173 2 11.7634 1.69405 1.04762
174 2 13.2158 1.3849 1.76421
175 2 12.7239 2.72189 5.48311
176 2 13.0386 1.5294 6.1124
177 2 9.51742 4.60932 6.69478
178 2 8.77767 3.24518 7.44662
179 2 8.04564 4.88542 3.44434
180 2 9.36864 4.81017 2.40058
181 2 9.61495 5.09521 0.350058
182 2 11.1745 5.16255 0.862977
183 2 9.41799 1.2276 17.7499
184 2 9.56266 1.44379 1.72151
185 2 13.4241 1.01463 3.96275
186 2 13.9435 14.1733 3.30542
187 2 13.5481 1.35179 8.42203
188 2 14.0155 13.9189 7.63187
189 2 13.5502 5.02457 6.69093
190 2 15.0209 5.06229 7.61563
191 2 7.96057 1.09728 7.43232
192 2 9.4448 1.19432 6.70176
193 2 1.83965 8.5382 4.06804
194 2 1.47425 9.73099 3.06972
195 2 4.16739 11.8649 1.16408
196 2 5.23268 10.4772 0.995933
197 2 7.16589 12.0224 3.34738
198 2 6.0286 12.1128 2.48441
199 2 5.65284 11.8125 4.70362
200 2 5.35291 11.9602 6.22004
201 2 2.09577 8.46951 6.0472
202 2 3.82898 8.50636 5.39833
203 2 2.5681 13.4084 5.13372
204 2 3.40567 12.0062 5.15113
205 2 4.15021 8.55876 1.31175
206 2 5.52104 8.366 0.473062
207 2 5.18804 9.95145 5.25607
208 2 5.5909 8.61866 4.54512
209 2 1.82474 11.8631 6.73246
210 2 1.18299 10.6864 7.40335
211 2 0.33884 11.9543 3.15125
212 2 1.72825 11.7797 3.90681
213 2 1.95872 12.0636 1.79313
214 2 2.62611 13.4164 0.882749
215 2 2.07672 8.13332 1.91921
216 2 2.0272 8.24076 0.340522
217 2 7.18998 8.48122 3.2939
218 2 5.96523 8.44916 2.52728
219 2 5.88734 8.18043 6.74139
220 2 7.38371 8.46835 7.54378
221 2 5.81664 11.9567 8.39632
222 2 7.16294 11.8423 7.58039
223 2 0.249943 8.49692 7.58514
224 2 1.68379 8.36535 8.25658
225 2 9.42264 8.31341 4.01474
226 2 9.3206 8.51058 2.43003
227 2 11.8296 11.8336 1.08744
228 2 12.5463 10.3882 1.05711
229 2 13.3489 11.9191 2.48085
230 2 13.4512 11.9942 4.03531
231 2 13.2417 12.0975 6.16314
232 2 11.8178 11.8553 5.63553
233 2 11.0956 8.18263 5.43854
234 2 9.55529 8.30246 6.28676
235 2 10.282 13.3133 5.23134
236 2 9.66827 12.1729 4.53016
237 2 13.139 8.7116 2.10359
238 2 13.087 8.68448 17.6766
239 2 13.1255 8.71761 4.53301
240 2 12.3725 9.79695 5.43267
241 2 9.4102 11.9516 7.99163
242 2 9.06332 11.8214 6.59849
243 2 9.03487 10.4743 3.09312
244 2 9.28576 11.6054 2.35895
245 2 9.88138 13.3686 1.19297
246 2 9.71985 12.1786 17.6268
247 2 11.0881 8.30291 1.09633
248 2 10.1029 6.99394 1.01871
249 2 14.8774 8.22974 3.44775
250 2 14.0393 6.86463 3.21204
251 2 13.5164 7.0259 7.57892
252 2 13.2929 8.33953 6.54867
253 2 14.9119 12.1677 7.4524
254 2 13.441 12.2162 8.41618
255 2 8.91486 9.6776 7.46435
256 2 9.31461 8.39362 8.29278
257 2 1.6491 1.29059 11.1342
258 2 0.534323 1.27768 12.1024
259 2 5.73499 4.85474 10.4477
260 2 5.36893 4.99667 9.10856
261 2 6.15797 6.43245 11.8171
262 2 5.99291 4.96113 12.6591
263 2 4.28615 4.78479 14.0435
264 2 5.04098 3.29921 14.0022
265 2 1.90643 1.33629 13.7252
266 2 2.30578 1.15239 15.2314
267 2 2.29825 4.92768 15.0331
268 2 2.59309 6.29321 14.1976
269 2 4.1694 1.5127 9.83073
270 2 5.15845 2.65984 9.77067
271 2 4.21088 1.24209 14.1683
272 2 5.71871 1.40565 14.9005
273 2 1.58424 4.74084 17.2398
274 2 1.20961 3.3268 16.1124
275 2 2.04103 4.70473 12.9575
276 2 1.47592 3.30801 11.9471
277 2 2.27925 4.8275 10.5649
278 2 3.50131 4.94922 9.74915
279 2 2.01315 1.14083 8.86964
280 2 2.5783 14.1677 9.76698
281 2 5.66675 1.21213 11.2289
282 2 6.0401 1.01163 12.8207
283 2 6.48295 14.0698 16.4946
284 2 5.98435 1.23648 17.1568
285 2 7.46093 5.07498 16.3481
286 2 6.00634 4.96414 15.5504
287 2 0.295969 1.39974 16.4748
288 2 1.74926 1.70779 17.2743
289 2 7.95714 1.25556 11.8918
290 2 8.61867 2.74874 11.8423
291 2 13.3313 4.73331 8.96925
292 2 13.3281 4.69897 10.6135
293 2 14.919 5.16659 12.0177
294 2 13.6937 4.99723 12.8122
295 2 12.8877 4.94055 14.861
296 2 12.7249 3.38362 14.1016
297 2 10.287 14.1697 14.0183
298 2 9.67455 0.911997 13.4312
299 2 10.8706 4.98451 13.866
300 2 9.52858 4.99921 13.24
301 2 12.7682 2.88578 9.72931
302 2 11.7583 1.38503 9.9967
303 2 13.1855 1.47813 14.9899
304 2 11.6806 1.42857 13.9826
305 2 8.9223 3.48711 16.4909
306 2 9.26418 4.48179 15.5382
307 2 9.22477 4.77215 10.9459
308 2 7.91683 4.75088 11.8926
309 2 9.66601 4.95847 8.89485
310 2 11.0811 4.87471 9.84492
311 2 9.53215 1.31605 10.6865
312 2 9.73269 1.17177 9.09853
313 2 13.553 1.2661 11.1171
314 2 13.2882 1.29852 12.5913
315 2 13.6078 1.07085 17.2061
316 2 13.9969 13.9891 16.3024
317 2 13.8493 6.4696 16.2999
318 2 14.8808 4.91965 16.2009
319 2 7.91151 1.47292 16.4399
320 2 9.47223 1.35857 15.6473
321 2 1.58296 8.68998 11.0864
322 2 1.23601 9.92777 11.8684
323 2 5.62078 11.9231 10.4895
324 2 3.94653 11.7906 9.73527
325 2 5.96525 12.0354 12.7964
326 2 6.50611 13.3612 11.9631
327 2 4.13144 11.7987 14.1522
328 2 4.96865 10.4677 13.8219
329 2 3.49996 8.4558 14.1906
330 2 2.06663 8.26042 13.4305
331 2 2.70365 13.3872 14.1278
332 2 2.04694 12.0034 14.9177
333 2 4.92687 9.79668 9.76937
334 2 5.66807 8.44277 8.94
335 2 5.64311 8.53984 13.365
336 2 5.72981 8.55495 15.1102
337 2 0.510587 11.6615 16.4964
338 2 1.84915 11.9347 17.0783
339 2 0.330428 11.8697 11.9925
340 2 1.85073 11.793 12.6132
341 2 2.20199 11.892 9.13671
342 2 1.90604 12.0536 10.7349
343 2 2.34035 6.93975 9.86719
344 2 3.38781 8.18943 9.54955
345 2 7.05618 8.32035 11.6795
346 2 5.75854 8.5374 11.1477
347 2 6.38604 6.87495 16.3828
348 2 7.21962 8.44559 16.5526
349 2 5.93466 11.8825 17.2033
350 2 5.87173 11.8856 15.616
351 2 1.97554 8.63138 15.5491
352 2 1.1141 9.72661 16.3886
353 2 9.35982 8.32838 12.8377
354 2 9.26421 8.28218 11.036
355 2 12.7163 10.6821 9.94955
356 2 11.6838 11.7711 9.75598
357 2 13.8875 13.5872 12.0051
358 2 13.5012 12.1605 11.033
359 2 11.9127 11.859 14.1017
360 2 13.1732 11.6523 13.3557
361 2 10.9441 8.27387 14.2322
362 2 10.016 6.87778 14.1276
363 2 9.68 11.856 14.9528
364 2 9.72412 12.1534 13.2161
365 2 12.966 8.46206 9.0055
366 2 12.9857 8.26118 10.4068
367 2 13.0402 8.48518 13.3396
368 2 12.4464 9.79222 14.2505
369 2 9.03438 10.4844 16.4192
370 2 8.03678 11.7494 16.2343
371 2 7.99895 11.8375 12.0485
372 2 9.06681 10.4544 12.0481
373 2 10.0503 13.3077 9.87172
374 2 9.49931 12.2945 10.4913
375 2 10.2184 6.94812 9.5309
376 2 11.0306 8.29847 9.62886
377 2 14.698 8.32586 11.9771
378 2 13.8964 7.0037 12.0697
379 2 14.8612 8.3538 16.2162
380 2 13.3329 8.25127 15.5431
381 2 13.4984 12.0259 17.1807
382 2 13.5172 12.2126 15.5878
383 2 9.18358 8.65573 15.4756
384 2 9.30982 8.56607 17.2891
ITEM: TIMESTEP
400
ITEM: NUMBER OF ATOMS
384
ITEM: BOX BOUNDS pp pp pp
4.6654049692420863e-01 1.5179137033075790e+01
4.3348055518130035e-01 1.4273664734818711e+01
6.2313843955395143e-01 1.7449898590446061e+01
ITEM: ATOMS id type x y z
1 1 1.44178 1.63082 3.29948
2 1 4.9945 4.44117 1.12551
3 1 6.29282 5.1618 3.28216
4 1 4.82642 4.22031 5.13991
5 1 2.51259 0.523347 5.31773
6 1 2.43215 5.1381 5.31066
7 1 4.86489 1.73649 1.18346
8 1 4.95918 1.56436 5.20172
9 1 1.1787 4.32937 7.41763
10 1 1.217 4.31257 3.17789
11 1 2.49065 5.05991 0.983195
12 1 2.48195 0.970526 1.10081
13 1 6.19292 0.846807 3.19736
14 1 6.26616 0.7926 7.3283
15 1 6.14447 5.11138 7.13936
16 1 1.40999 1.67228 7.34261
17 1 8.58946 1.79916 3.14234
18 1 12.2202 4.14546 0.781447
19 1 13.383 4.9942 2.96049
20 1 12.2485 4.15304 5.05078
21 1 9.86845 0.679313 5.11082
22 1 9.84506 5.14661 5.22253
23 1 12.2501 1.54019 0.989365
24 1 12.441 1.55086 5.28106
25 1 8.62418 4.13453 7.30192
26 1 8.66833 4.40784 3.01352
27 1 9.89652 5.14917 0.842134
28 1 9.80169 0.892351 1.06323
29 1 13.6205 0.884149 3.15505
30 1 13.6676 0.793596 7.51259
31 1 13.5634 5.19091 7.13341
32 1 8.72665 1.49519 7.28195
33 1 1.31664 8.50241 3.123
34 1 4.99242 11.128 1.02328
35 1 6.24314 12.0678 2.99974
36 1 4.94132 11.2481 5.11193
37 1 2.4459 7.75021 5.3319
38 1 2.35168 11.8336 5.22609
39 1 4.80741 8.54799 1.06416
40 1 4.9436 8.60979 5.15292
41 1 1.23475 11.065 7.38595
42 1 1.22832 11.1591 3.06203
43 1 2.56509 12.2236 1.048
44 1 2.36362 7.65352 0.962514
45 1 6.23574 7.70248 3.08718
46 1 6.08155 7.76127 7.27117
47 1 5.99014 12.0698 7.33545
48 1 1.1357 8.46854 7.3453
49 1 8.72582 8.54757 3.12932
50 1 12.284 11.1482 1.14852
51 1 13.4808 12.1866 3.15486
52 1 12.3338 11.3797 5.23998
53 1 9.88748 7.59777 5.28404
54 1 9.77408 11.9139 5.27792
55 1 12.3787 8.57553 1.12713
56 1 12.241 8.77293 5.16762
57 1 8.4575 11.1696 7.27302
58 1 8.71615 11.153 3.10947
59 1 9.9793 12.1438 1.01238
60 1 9.86873 7.73036 1.05939
61 1 13.5332 7.62774 3.12708
62 1 13.3255 7.81266 7.2063
63 1 13.4932 12.1311 7.51299
64 1 8.44646 8.59042 7.27406
65 1 1.39843 1.64367 11.61
66 1 5.03354 4.27746 9.40157
67 1 6.15654 5.289 11.6138
68 1 4.92094 4.48459 13.5707
69 1 2.55503 0.729578 13.7206
70 1 2.46149 5.24574 13.6725
71 1 5.044 1.70463 9.64214
72 1 4.92365 1.8434 13.8014
73 1 1.15792 4.29816 15.7046
74 1 1.3661 4.19214 11.6984
75 1 2.4844 5.1294 9.62132
76 1 2.56748 0.79154 9.54315
77 1 6.19992 0.702435 11.756
78 1 6.08587 0.784176 15.88
79 1 6.32942 5.15166 15.7392
80 1 1.21458 1.62703 15.7332
81 1 8.48982 1.69328 11.5725
82 1 12.3777 4.3249 9.43312
83 1 13.5864 5.09153 11.5918
84 1 12.2489 4.16075 13.5625
85 1 9.76497 0.770239 13.5722
86 1 9.75594 4.94465 13.4876
87 1 12.2182 1.72531 9.58621
88 1 12.2901 1.49892 13.7463
89 1 8.68525 4.09832 15.6199
90 1 8.51005 4.27257 11.2988
91 1 9.85017 5.1794 9.27716
92 1 9.92953 0.715789 9.51772
93 1 13.6296 0.962918 11.5357
94 1 13.6132 0.583407 15.8692
95 1 13.4783 5.16467 15.5177
96 1 8.64292 1.49321 15.7794
97 1 1.22041 8.72434 11.5611
98 1 4.86782 11.2447 9.50763
99 1 6.18435 11.9773 11.6582
100 1 4.88119 11.2176 13.7277
101 1 2.42209 7.70846 13.5789
102 1 2.45346 12.0464 13.5868
103 1 4.7698 8.62343 9.45197
104 1 4.73126 8.70086 13.6548
105 1 1.3743 11.0344 15.8063
106 1 1.2492 11.3839 11.5
107 1 2.41526 12.1384 9.38768
108 1 2.33194 7.67236 9.5058
109 1 6.09897 7.83725 11.5312
110 1 6.20118 7.74818 15.7543
111 1 6.20376 12.0616 15.7603
112 1 1.27468 8.54637 15.7873
113 1 8.66134 8.62248 11.4604
114 1 12.1874 11.2227 9.45365
115 1 13.5376 12.238 11.4985
116 1 12.2178 11.2824 13.4912
117 1 9.77635 7.5872 13.7144
118 1 9.69603 12.0486 13.5016
119 1 12.2721 8.57939 9.47632
120 1 12.2485 8.60949 13.5643
121 1 8.68878 11.3124 15.8208
122 1 8.59532 11.0793 11.4901
123 1 9.7554 12.0064 9.47645
124 1 9.80223 7.72667 9.43489
125 1 13.5812 7.73442 11.5443
126 1 13.461 7.76429 15.6917
127 1 13.5809 11.7677 15.7146
128 1 8.52003 8.59404 15.7832
129 2 0.566926 1.41456 3.18692
130 2 1.40411 2.61611 3.26103
131 2 5.61424 4.68586 1.90337
132 2 5.78712 4.61396 17.2073
133 2 5.57298 4.76813 3.95156
134 2 6.21149 6.13551 3.313
135 2 3.79816 4.78006 5.2461
136 2 5.60687 4.61675 6.10726
137 2 2.06207 0.969096 4.40147
138 2 3.53422 0.94777 5.24415
139 2 1.96788 4.90507 6.37625
140 2 2.388 6.18826 5.35033
141 2 5.39984 1.33968 2.05968
142 2 4.93624 2.842 1.01777
143 2 4.58112 2.51935 5.10749
144 2 5.27649 1.5111 6.30906
145 2 1.58216 4.57627 8.35639
146 2 1.24895 3.36354 7.47637
147 2 1.71495 4.61692 3.96759
148 2 1.72663 4.62307 2.58509
149 2 3.508 4.73416 1.00634
150 2 2.4225 5.91733 1.20594
151 2 3.32054 1.54696 1.21028
152 2 2.03098 1.29644 1.83833
153 2 5.60867 1.1862 4.11993
154 2 6.26293 13.6459 3.23788
155 2 5.97561 1.15507 8.29719
156 2 6.40572 13.6457 7.3157
157 2 7.13525 4.81274 7.08867
158 2 6.04226 6.05168 7.00539
159 2 1.72084 1.16684 6.37268
160 2 0.59051 1.07521 7.27595
161 2 8.70002 2.86691 3.28786
162 2 7.61638 1.44691 3.26928
163 2 11.892 3.24985 0.777647
164 2 12.5256 4.32835 16.684
165 2 12.8933 4.5681 2.12168
166 2 14.2273 4.61447 2.82919
167 2 12.7623 4.46013 4.28215
168 2 11.4872 4.54495 5.06116
169 2 10.6283 1.17292 5.16179
170 2 9.49385 1.08268 4.37368
171 2 9.66965 6.19763 5.26582
172 2 9.28382 4.89009 4.34864
173 2 11.2539 1.14058 1.10992
174 2 12.6268 1.39468 1.83694
175 2 12.311 2.54623 5.37844
176 2 12.8693 1.37884 6.15586
177 2 8.97019 4.3959 6.33853
178 2 8.63289 3.10266 7.39068
179 2 7.69556 4.83034 3.10631
180 2 9.10578 4.70816 2.12011
181 2 9.24287 4.72284 16.922
182 2 10.8452 4.92753 0.874882
183 2 9.14467 1.19378 17.1915
184 2 9.2513 1.2957 1.75328
185 2 13.1683 1.18628 3.99857
186 2 13.3692 13.7858 3.12391
187 2 13.1278 1.23826 8.18238
188 2 13.6976 13.6159 7.77456
189 2 13.1755 4.45298 6.40237
190 2 14.5037 5.00774 7.6488
191 2 7.84792 1.32874 7.15407
192 2 9.29571 1.02459 6.53084
193 2 2.02043 8.1577 3.92402
194 2 1.12766 9.52438 3.30797
195 2 4.068 11.5841 0.967184
196 2 4.83262 10.0854 1.04333
197 2 7.12975 11.8065 3.06351
198 2 5.7737 11.6082 2.14665
199 2 5.57137 11.5979 4.37983
200 2 5.25198 11.5226 6.01
201 2 1.9201 7.89631 6.05119
202 2 3.52016 8.03958 5.36878
203 2 2.27522 12.7683 5.16851
204 2 3.40592 11.6839 5.30932
205 2 3.89706 7.98881 1.09068
206 2 5.29612 8.52608 17.1005
207 2 4.95585 9.58151 4.94127
208 2 5.46811 8.1798 4.44527
209 2 1.80281 11.2785 6.52567
210 2 1.01514 10.2594 7.49991
211 2 15.0342 11.6683 3.13372
212 2 1.66935 11.5556 3.85499
213 2 1.89256 12.0425 1.80221
214 2 2.5996 13.1741 1.18956
215 2 1.84766 8.1228 1.56065
216 2 1.95872 7.93445 16.7296
217 2 7.31118 8.01755 2.97032
218 2 5.91612 8.01275 2.18476
219 2 5.6539 8.06529 6.50685
220 2 7.04257 8.36116 7.25175
221 2 5.48639 11.7152 8.17845
222 2 6.99918 11.8127 7.39774
223 2 14.92 8.0898 7.22119
224 2 1.36453 8.38132 8.50045
225 2 9.11077 8.31302 4.06136
226 2 9.20959 8.07211 2.2802
227 2 11.2697 11.7152 1.04206
228 2 12.3296 10.2269 1.05895
229 2 13.1793 11.8395 2.39012
230 2 13.0585 11.7415 4.01485
231 2 12.8371 11.8192 6.17876
232 2 11.2146 11.5002 5.29092
233 2 10.7508 8.01074 5.1963
234 2 9.29322 8.10767 6.04249
235 2 9.92307 13.0466 5.19578
236 2 9.61729 11.6723 4.43033
237 2 13.0072 8.00075 1.98116
238 2 12.6616 8.36243 16.9354
239 2 12.6845 8.32706 4.5738
240 2 12.2306 9.87666 5.11052
241 2 9.00534 11.3854 8.09456
242 2 8.98889 11.4886 6.66484
243 2 8.64416 10.1892 2.99197
244 2 9.23511 11.5129 2.32905
245 2 9.7197 13.1476 1.02473
246 2 9.45203 11.8027 17.0725
247 2 10.8976 8.03228 0.729892
248 2 9.99093 6.57711 0.934672
249 2 14.5143 7.79171 3.37878
250 2 13.7024 6.65129 3.16973
251 2 13.2655 6.73558 7.23498
252 2 13.0876 8.32146 6.3693
253 2 14.455 11.7004 7.41101
254 2 13.1351 11.5656 8.47213
255 2 8.48753 9.61415 7.43886
256 2 9.00356 8.21662 8.04911
257 2 1.88793 1.37908 10.6913
258 2 15.1698 1.46219 11.6723
259 2 5.36657 4.74617 10.2143
260 2 5.2031 4.79753 8.53195
261 2 6.07414 6.32812 11.3288
262 2 5.6628 5.11245 12.512
263 2 3.72041 4.61318 13.5019
264 2 5.01986 3.32497 13.6881
265 2 2.10678 1.19435 12.7222
266 2 1.94757 1.10051 14.4186
267 2 2.0783 4.88434 14.475
268 2 2.35587 6.34391 13.6973
269 2 4.11349 1.30447 9.36473
270 2 4.92345 2.73078 9.62556
271 2 3.98566 1.60308 13.8851
272 2 5.42585 1.38695 14.6652
273 2 1.72893 4.62893 16.4234
274 2 1.25539 3.37483 15.6077
275 2 1.8355 4.59949 12.46
276 2 1.53284 3.22422 11.771
277 2 2.02066 4.77459 10.4587
278 2 3.4833 4.69432 9.65517
279 2 2.28733 1.25815 8.62587
280 2 2.67503 13.6829 9.26868
281 2 5.87428 1.02694 10.8999
282 2 5.89374 1.24363 12.4881
283 2 6.12431 13.5988 15.9033
284 2 5.55157 1.05516 16.7154
285 2 7.31611 4.81566 15.5605
286 2 5.90695 4.76444 14.8119
287 2 15.0072 1.00615 15.7146
288 2 1.58817 1.24605 16.6308
289 2 7.59986 1.58343 11.7295
290 2 8.57543 2.69756 11.4967
291 2 12.7008 4.54215 8.56765
292 2 12.8572 4.6123 10.3892
293 2 14.6217 4.83446 11.4941
294 2 13.1592 4.82069 12.3493
295 2 12.8307 4.57633 14.2037
296 2 12.1997 3.22363 13.7046
297 2 9.6873 13.6802 13.4371
298 2 9.29287 1.13837 12.7573
299 2 10.7206 4.63991 13.3264
300 2 9.38656 4.97844 12.45
301 2 11.9578 2.54187 9.37942
302 2 11.4358 1.15041 9.82149
303 2 12.8172 1.2419 14.6043
304 2 11.3236 1.31995 13.6766
305 2 8.44311 3.20393 15.5309
306 2 9.05113 4.43113 14.7281
307 2 9.11238 4.85325 10.594
308 2 7.48288 4.73922 11.4501
309 2 9.41784 4.87554 8.4774
310 2 10.8412 4.99693 9.18637
311 2 9.53704 1.06995 10.2786
312 2 9.49596 1.01883 8.76617
313 2 13.2423 1.25702 10.6799
314 2 13.2161 1.32885 12.2808
315 2 13.3331 1.04675 16.6821
316 2 13.4176 13.4317 15.9238
317 2 13.2204 6.18231 15.6513
318 2 14.4468 5.05218 15.68
319 2 7.70433 1.14517 15.7959
320 2 9.08812 1.18509 14.9793
321 2 1.53197 8.31967 10.7784
322 2 1.2008 9.75338 11.5969
323 2 5.43059 11.3018 10.3983
324 2 3.90959 11.3544 9.64602
325 2 5.53699 11.6668 12.531
326 2 6.12558 13.0117 11.914
327 2 3.86123 11.4535 13.6405
328 2 4.8128 10.17 13.8302
329 2 3.35743 8.14354 13.6394