ITEM: TIMESTEP
0
ITEM: NUMBER OF ATOMS
384
ITEM: BOX BOUNDS pp pp pp
0.0000000000000000e+00 1.5645677530000000e+01
0.0000000000000000e+00 1.4707145290000000e+01
0.0000000000000000e+00 1.8073037029999998e+01
ITEM: ATOMS id type x y z
1 1 1.38 1.76 3.37
2 1 5.2 4.47 1.11
3 1 6.59 5.39 3.31
4 1 5.28 4.49 5.56
5 1 2.59 0.84 5.67
6 1 2.69 5.43 5.56
7 1 5.2 1.71 1.07
8 1 5.2 1.73 5.58
9 1 1.32 4.61 7.82
10 1 1.3 4.52 3.36
11 1 2.61 5.41 1.1
12 1 2.59 0.82 1.07
13 1 6.54 0.87 3.33
14 1 6.54 0.88 7.83
15 1 6.51 5.4 7.86
16 1 1.35 1.85 7.92
17 1 9.2 1.76 3.37
18 1 13.05 4.55 1.15
19 1 14.35 5.46 3.4
20 1 13.1 4.49 5.66
21 1 10.41 0.84 5.67
22 1 10.51 5.43 5.65
23 1 13.07 1.79 1.07
24 1 13.02 1.73 5.58
25 1 9.15 4.61 7.91
26 1 9.2 4.52 3.4
27 1 10.45 5.49 1.15
28 1 10.49 0.82 1.12
29 1 14.36 0.87 3.33
30 1 14.36 0.88 7.83
31 1 14.36 5.48 7.9
32 1 9.17 1.85 7.92
33 1 1.3 9.11 3.32
34 1 5.3 11.9 1.11
35 1 6.53 12.81 3.4
36 1 5.2 11.84 5.61
37 1 2.59 8.19 5.58
38 1 2.61 12.79 5.61
39 1 5.25 9.14 1.16
40 1 5.2 9.08 5.67
41 1 1.32 11.96 7.91
42 1 1.38 11.87 3.31
43 1 2.69 12.77 1.06
44 1 2.67 8.17 1.12
45 1 6.49 8.14 3.42
46 1 6.49 8.16 7.92
47 1 6.53 12.83 7.81
48 1 1.35 9.21 7.83
49 1 9.09 9.19 3.37
50 1 13.13 11.9 1.11
51 1 14.44 12.82 3.35
52 1 13.1 11.84 5.56
53 1 10.41 8.19 5.58
54 1 10.51 12.79 5.65
55 1 12.99 9.14 1.12
56 1 13.02 9.08 5.67
57 1 9.12 11.89 7.86
58 1 9.15 11.95 3.4
59 1 10.51 12.77 1.15
60 1 10.38 8.25 1.12
61 1 14.29 8.22 3.37
62 1 14.36 8.24 7.92
63 1 14.36 12.83 7.81
64 1 9.12 9.13 7.83
65 1 1.35 1.83 12.45
66 1 5.2 4.47 10.14
67 1 6.59 5.39 12.34
68 1 5.3 4.56 14.65
69 1 2.67 0.84 14.66
70 1 2.69 5.43 14.6
71 1 5.28 1.71 10.15
72 1 5.25 1.81 14.61
73 1 1.32 4.61 16.85
74 1 1.32 4.59 12.35
75 1 2.63 5.49 10.09
76 1 2.64 0.89 10.2
77 1 6.57 0.79 12.41
78 1 6.54 0.88 16.87
79 1 6.53 5.48 16.94
80 1 1.35 1.85 16.86
81 1 9.2 1.76 12.41
82 1 13.02 4.47 10.14
83 1 14.35 5.46 12.34
84 1 13.05 4.57 14.6
85 1 10.46 0.91 14.71
86 1 10.46 5.51 14.69
87 1 13.1 1.71 10.15
88 1 13.07 1.81 14.61
89 1 9.15 4.61 16.94
90 1 9.2 4.52 12.44
91 1 10.45 5.49 10.18
92 1 10.49 0.82 10.16
93 1 14.39 0.79 12.41
94 1 14.36 0.88 16.87
95 1 14.33 5.4 16.89
96 1 9.17 1.85 16.96
97 1 1.3 9.11 12.45
98 1 5.28 11.83 10.1
99 1 6.59 12.74 12.34
100 1 5.3 11.92 14.65
101 1 2.59 8.19 14.71
102 1 2.69 12.79 14.6
103 1 5.2 9.07 10.2
104 1 5.17 9.16 14.66
105 1 1.38 11.89 16.85
106 1 1.38 11.87 12.35
107 1 2.71 12.84 10.14
108 1 2.56 8.25 10.16
109 1 6.49 8.14 12.46
110 1 6.46 8.24 16.91
111 1 6.61 12.83 16.89
112 1 1.3 9.13 16.96
113 1 9.09 9.19 12.41
114 1 13.13 11.9 10.14
115 1 14.41 12.74 12.44
116 1 13.1 11.84 14.69
117 1 10.38 8.27 14.66
118 1 10.53 12.86 14.64
119 1 12.99 9.14 10.15
120 1 13.02 9.08 14.7
121 1 9.23 11.96 16.9
122 1 9.23 11.95 12.39
123 1 10.51 12.77 10.09
124 1 10.38 8.25 10.16
125 1 14.29 8.22 12.41
126 1 14.31 8.16 16.96
127 1 14.44 12.83 16.89
128 1 9.09 9.21 16.91
129 2 0.46 1.48 3.37
130 2 1.33 2.71 3.37
131 2 5.68 4.81 1.86
132 2 5.67 4.81 0.35
133 2 6.13 5.1 4.1
134 2 6.56 6.34 3.34
135 2 4.38 4.84 5.6
136 2 5.7 4.83 6.36
137 2 2.17 1.18 4.88
138 2 3.49 1.17 5.63
139 2 2.23 5.15 6.35
140 2 2.65 6.39 5.59
141 2 5.65 1.43 1.86
142 2 5.23 2.67 1.1
143 2 5.23 2.69 5.61
144 2 5.65 1.45 6.37
145 2 1.78 4.88 8.61
146 2 1.33 3.65 7.85
147 2 1.78 4.85 4.11
148 2 1.78 4.85 2.6
149 2 3.52 5.14 1.1
150 2 2.64 6.37 1.11
151 2 3.49 1.15 1.11
152 2 2.17 1.16 1.87
153 2 6.09 1.14 4.12
154 2 6.53 14.6171 3.37
155 2 6.09 1.15 8.63
156 2 6.53 14.6371 7.86
157 2 7.43 5.14 7.86
158 2 6.53 6.36 7.86
159 2 1.77 1.51 7.13
160 2 0.46 1.51 7.89
161 2 9.16 2.71 3.37
162 2 8.28 1.48 3.37
163 2 13.06 3.59 1.12
164 2 13.5 4.82 0.36
165 2 13.94 5.12 2.61
166 2 15.25 5.14 3.36
167 2 13.52 4.82 4.86
168 2 12.21 4.84 5.62
169 2 11.31 1.17 5.63
170 2 10 1.18 4.88
171 2 10.47 6.39 5.62
172 2 10.05 5.15 4.86
173 2 12.18 1.46 1.11
174 2 13.49 1.45 1.86
175 2 13.05 2.69 5.61
176 2 13.48 1.45 6.37
177 2 9.61 4.88 7.11
178 2 9.16 3.65 7.88
179 2 8.3 4.84 3.36
180 2 9.61 4.85 2.61
181 2 10.04 5.17 0.35
182 2 11.35 5.14 1.11
183 2 10.02 1.16 0.36
184 2 10.02 1.16 1.88
185 2 13.91 1.14 4.12
186 2 14.35 14.6171 3.37
187 2 13.91 1.15 8.63
188 2 14.36 14.6371 7.86
189 2 13.94 5.14 7.11
190 2 15.26 5.16 7.86
191 2 8.28 1.51 7.89
192 2 9.59 1.51 7.13
193 2 1.75 8.83 4.12
194 2 1.33 10.07 3.36
195 2 4.39 12.19 1.1
196 2 5.25 10.94 1.11
197 2 7.43 12.49 3.36
198 2 6.12 12.48 2.61
199 2 5.68 12.17 4.85
200 2 5.68 12.18 6.37
201 2 2.17 8.54 6.37
202 2 3.49 8.52 5.61
203 2 2.64 13.74 5.61
204 2 3.52 12.51 5.61
205 2 4.35 8.81 1.13
206 2 5.66 8.81 0.36
207 2 5.23 10.04 5.63
208 2 5.65 8.8 4.88
209 2 1.78 12.24 7.11
210 2 1.34 11.01 7.88
211 2 0.48 12.2 3.35
212 2 1.79 12.21 4.11
213 2 2.23 12.49 1.85
214 2 2.65 13.72 1.09
215 2 2.19 8.52 1.88
216 2 2.2 8.52 0.36
217 2 7.38 8.49 3.39
218 2 6.07 8.48 2.63
219 2 6.07 8.5 7.13
220 2 7.38 8.51 7.89
221 2 6.12 12.49 8.61
222 2 7.43 12.51 7.85
223 2 0.46 8.86 7.86
224 2 1.77 8.86 8.62
225 2 9.57 8.85 4.13
226 2 9.57 8.84 2.61
227 2 12.21 12.19 1.1
228 2 13.08 10.94 1.11
229 2 13.95 12.48 2.6
230 2 13.95 12.48 4.11
231 2 13.52 12.18 6.36
232 2 12.21 12.19 5.6
233 2 11.31 8.52 5.61
234 2 10 8.54 6.37
235 2 10.47 13.74 5.62
236 2 10.05 12.51 4.86
237 2 13.47 8.8 1.87
238 2 13.47 8.81 0.36
239 2 13.48 8.8 4.88
240 2 13.05 10.04 5.63
241 2 9.6 12.22 8.62
242 2 9.6 12.22 7.11
243 2 9.16 10.99 3.37
244 2 9.61 12.22 2.61
245 2 10.48 13.72 1.13
246 2 10.05 12.49 0.35
247 2 11.3 8.53 1.12
248 2 10.43 7.29 1.11
249 2 15.2 8.51 3.37
250 2 14.34 7.26 3.37
251 2 14.36 7.28 7.88
252 2 13.91 8.52 7.13
253 2 15.26 12.51 7.85
254 2 13.94 12.49 8.61
255 2 9.15 10.09 7.86
256 2 9.57 8.85 8.62
257 2 1.77 1.49 11.66
258 2 0.46 1.49 12.42
259 2 5.68 4.81 10.9
260 2 5.67 4.81 9.38
261 2 6.56 6.34 12.38
262 2 6.13 5.1 13.14
263 2 4.39 4.85 14.65
264 2 5.25 3.61 14.65
265 2 2.19 1.18 13.9
266 2 2.19 1.18 15.42
267 2 2.23 5.15 15.39
268 2 2.65 6.39 14.63
269 2 4.36 1.44 10.15
270 2 5.24 2.67 10.15
271 2 4.35 1.48 14.65
272 2 5.66 1.47 15.41
273 2 1.78 4.88 17.65
274 2 1.33 3.65 16.89
275 2 1.78 4.87 13.14
276 2 1.34 3.64 12.39
277 2 2.21 5.16 10.89
278 2 3.52 5.14 10.13
279 2 2.19 1.18 9.41
280 2 2.63 14.6471 10.16
281 2 6.09 1.13 11.65
282 2 6.09 1.14 13.17
283 2 6.53 14.6371 16.9
284 2 6.09 1.15 17.67
285 2 7.43 5.16 16.9
286 2 6.12 5.14 16.15
287 2 0.46 1.51 16.89
288 2 1.77 1.51 17.66
289 2 8.28 1.48 12.41
290 2 9.16 2.71 12.4
291 2 13.5 4.81 9.38
292 2 13.5 4.81 10.9
293 2 15.25 5.14 12.39
294 2 13.94 5.13 13.14
295 2 13.51 4.84 15.39
296 2 13.06 3.61 14.64
297 2 10.46 14.6671 14.67
298 2 10.01 1.19 13.91
299 2 11.35 5.16 14.65
300 2 10.04 5.17 13.9
301 2 13.07 2.67 10.15
302 2 12.18 1.44 10.15
303 2 13.49 1.47 15.41
304 2 12.18 1.48 14.65
305 2 9.16 3.65 16.91
306 2 9.61 4.88 16.15
307 2 9.61 4.85 11.64
308 2 8.3 4.84 12.4
309 2 10.04 5.17 9.39
310 2 11.35 5.14 10.15
311 2 10.02 1.16 10.91
312 2 10.02 1.16 9.4
313 2 13.92 1.13 11.65
314 2 13.92 1.14 13.17
315 2 13.91 1.15 17.67
316 2 14.36 14.6371 16.9
317 2 14.36 6.36 16.9
318 2 15.25 5.14 16.9
319 2 8.28 1.51 16.93
320 2 9.59 1.51 16.17
321 2 1.75 8.83 11.66
322 2 1.33 10.07 12.41
323 2 5.7 12.16 10.89
324 2 4.38 12.17 10.13
325 2 6.13 12.46 13.14
326 2 6.56 13.7 12.38
327 2 4.39 12.21 14.65
328 2 5.25 10.96 14.65
329 2 3.49 8.52 14.67
330 2 2.17 8.53 13.91
331 2 2.65 13.74 14.63
332 2 2.23 12.5 15.39
333 2 5.22 10.02 10.17
334 2 5.65 8.79 9.4
335 2 5.65 8.81 13.9
336 2 5.65 8.82 15.42
337 2 0.48 12.22 16.89
338 2 1.79 12.22 17.65
339 2 0.48 12.2 12.39
340 2 1.79 12.21 13.14
341 2 2.23 12.52 9.38
342 2 2.23 12.51 10.89
343 2 2.61 7.29 10.15
344 2 3.48 8.53 10.16
345 2 7.38 8.49 12.42
346 2 6.07 8.48 11.66
347 2 6.52 7.28 16.91
348 2 7.37 8.53 16.91
349 2 6.14 12.5 17.65
350 2 6.13 12.5 16.14
351 2 1.75 8.84 16.16
352 2 1.33 10.09 16.92
353 2 9.57 8.85 13.16
354 2 9.57 8.84 11.65
355 2 13.08 10.94 10.15
356 2 12.21 12.19 10.14
357 2 14.37 13.7 12.41
358 2 13.95 12.46 11.65
359 2 12.21 12.19 14.66
360 2 13.52 12.17 13.9
361 2 11.3 8.55 14.66
362 2 10.43 7.31 14.66
363 2 10.05 12.53 15.4
364 2 10.05 12.52 13.89
365 2 13.47 8.81 9.39
366 2 13.47 8.8 10.91
367 2 13.48 8.8 13.91
368 2 13.05 10.04 14.67
369 2 9.19 11.01 16.9
370 2 8.31 12.24 16.9
371 2 8.31 12.22 12.39
372 2 9.19 10.99 12.4
373 2 10.48 13.72 10.13
374 2 10.05 12.49 10.88
375 2 10.43 7.29 10.15
376 2 11.3 8.53 10.16
377 2 15.2 8.51 12.41
378 2 14.34 7.26 12.4
379 2 15.2 8.51 16.93
380 2 13.89 8.5 16.17
381 2 13.96 12.5 17.65
382 2 13.95 12.5 16.14
383 2 9.57 8.86 16.15
384 2 9.56 8.86 17.67
ITEM: TIMESTEP
200
ITEM: NUMBER OF ATOMS
384
ITEM: BOX BOUNDS pp pp pp
2.4136573719089505e-01 1.5404311792809107e+01
2.3499875751976607e-01 1.4472146532480238e+01
3.2049711169290340e-01 1.7752539918307097e+01
ITEM: ATOMS id type x y z
1 1 1.36417 1.71527 3.29906
2 1 5.04708 4.39557 0.996751
3 1 6.39808 5.26744 3.27401
4 1 5.00238 4.34165 5.42061
5 1 2.61634 0.668606 5.45381
6 1 2.48797 5.28373 5.42723
7 1 5.08196 1.75607 1.05592
8 1 5.14992 1.62379 5.46615
9 1 1.25464 4.3426 7.57042
10 1 1.27715 4.39949 3.26918
11 1 2.44296 5.30736 1.15339
12 1 2.50247 0.829657 1.10097
13 1 6.29506 0.877016 3.22574
14 1 6.28583 0.772725 7.70875
15 1 6.29737 5.26672 7.57594
16 1 1.46576 1.66847 7.54792
17 1 8.77739 1.79082 3.19686
18 1 12.6654 4.40899 1.00418
19 1 14.0088 5.19187 3.18933
20 1 12.7402 4.33942 5.41637
21 1 10.1678 0.830126 5.36013
22 1 10.1583 5.20241 5.49336
23 1 12.7782 1.71046 1.03068
24 1 12.6546 1.74133 5.36051
25 1 8.85454 4.25524 7.56267
26 1 8.90267 4.42365 3.20697
27 1 10.1334 5.36204 1.0606
28 1 10.1809 0.945813 1.07826
29 1 13.9143 0.777502 3.16458
30 1 14.0055 0.892616 7.6359
31 1 13.9646 5.25616 7.61626
32 1 8.83522 1.59504 7.56286
33 1 1.32941 8.7511 3.22416
34 1 5.04234 11.5116 1.14762
35 1 6.28411 12.4006 3.24857
36 1 5.01872 11.5106 5.36539
37 1 2.54047 8.05041 5.43665
38 1 2.43849 12.306 5.32525
39 1 5.14484 8.86769 1.15559
40 1 5.11535 8.88767 5.35104
41 1 1.37454 11.5686 7.50867
42 1 1.30186 11.4538 3.11333
43 1 2.5399 12.3743 1.03934
44 1 2.5758 7.86437 1.0739
45 1 6.34715 7.94151 3.28336
46 1 6.26823 7.90139 7.53051
47 1 6.25213 12.3335 7.55688
48 1 1.30141 8.86372 7.62961
49 1 8.88591 8.7919 3.29303
50 1 12.6842 11.4344 1.01996
51 1 13.9063 12.2879 3.16658
52 1 12.7442 11.5809 5.40542
53 1 10.087 7.88637 5.44596
54 1 10.181 12.3786 5.41559
55 1 12.6957 8.85148 1.19412
56 1 12.5526 8.75426 5.32482
57 1 8.76838 11.4142 7.52334
58 1 8.88215 11.445 3.2195
59 1 10.0859 12.4292 1.15323
60 1 10.0775 7.99683 1.10958
61 1 13.9363 7.97409 3.31894
62 1 13.8389 7.90884 7.46351
63 1 14.0051 12.4966 7.65455
64 1 8.79196 8.79331 7.57743
65 1 1.32514 1.61878 11.9978
66 1 5.04137 4.3875 9.77845
67 1 6.27411 5.39517 11.895
68 1 5.1341 4.34042 14.0355
69 1 2.6345 0.884502 14.2476
70 1 2.62705 5.3319 14.1463
71 1 5.21256 1.76479 9.86987
72 1 5.07725 1.68637 14.2099
73 1 1.3395 4.47966 16.3524
74 1 1.38704 4.40941 12.0155
75 1 2.59181 5.21587 9.75649
76 1 2.55008 0.912956 9.79821
77 1 6.33509 0.798365 11.9762
78 1 6.32791 0.793598 16.3617
79 1 6.33749 5.35255 16.3461
80 1 1.24085 1.70521 16.4141
81 1 8.84948 1.67166 11.9182
82 1 12.7658 4.42254 9.74492
83 1 13.9901 5.29924 11.9535
84 1 12.6537 4.39465 14.0274
85 1 10.161 0.84148 14.1916
86 1 10.0856 5.19897 14.064
87 1 12.6079 1.77588 9.73125
88 1 12.6697 1.74554 14.204
89 1 8.86418 4.43771 16.3375
90 1 8.79372 4.4275 11.8983
91 1 10.1814 5.26851 9.70831
92 1 10.1456 0.816991 9.78496
93 1 13.8738 0.791289 11.95
94 1 14.0076 0.778939 16.3651
95 1 13.9375 5.26813 16.2491
96 1 8.90768 1.816 16.3557
97 1 1.19617 8.82028 11.8829
98 1 5.0665 11.5908 9.74172
99 1 6.33138 12.4082 11.9246
100 1 5.14954 11.4823 14.174
101 1 2.54548 7.99894 14.1891
102 1 2.638 12.4629 14.0368
103 1 4.94565 8.93782 9.71911
104 1 5.05754 8.78039 14.2377
105 1 1.41598 11.4441 16.2379
106 1 1.28785 11.5023 11.9398
107 1 2.50385 12.4564 9.82324
108 1 2.5319 7.91677 9.7197
109 1 6.17871 8.02905 11.8759
110 1 6.36417 7.97816 16.3605
111 1 6.33908 12.3838 16.347
112 1 1.22579 8.80731 16.2621
113 1 8.80404 8.71428 11.9958
114 1 12.6464 11.5425 9.77215
115 1 13.9087 12.4043 11.9443
116 1 12.7798 11.5376 14.155
117 1 10.0603 7.90157 14.2576
118 1 10.2109 12.3949 14.1431
119 1 12.586 8.86397 9.70767
120 1 12.6409 8.8601 14.1843
121 1 8.87968 11.5866 16.2956
122 1 8.95091 11.4931 11.9807
123 1 10.1147 12.3963 9.74207
124 1 10.1477 7.90492 9.82803
125 1 13.771 7.94914 12.0289
126 1 13.906 7.89408 16.3716
127 1 14.0817 12.4358 16.2944
128 1 8.82151 8.87033 16.3444
129 2 0.410626 1.41686 3.39443
130 2 1.3703 2.81288 3.29052
131 2 5.44542 4.71213 1.76629
132 2 5.67022 4.76692 17.4704
133 2 6.0397 4.77365 4.05566
134 2 6.44559 6.1722 3.43663
135 2 3.81466 4.57262 5.40299
136 2 5.39352 4.71751 6.39779
137 2 1.89485 1.10127 4.75361
138 2 3.45755 1.04222 5.46564
139 2 2.01646 5.12273 6.24978
140 2 2.79754 6.21506 5.43951
141 2 5.55012 1.22482 1.81176
142 2 5.06018 2.77496 1.28322
143 2 4.83555 2.54584 5.543
144 2 5.58394 1.33298 6.23784
145 2 1.8137 4.46225 8.434
146 2 1.30282 3.42428 7.4975
147 2 1.85801 4.6415 4.21025
148 2 1.70088 4.79773 2.57524
149 2 3.50774 4.95364 1.1315
150 2 2.55265 6.22235 0.918961
151 2 3.46322 1.14366 1.02379
152 2 2.24393 1.23675 1.98407
153 2 5.7775 1.19005 4.17756
154 2 6.23529 14.1089 3.35845
155 2 5.64062 1.25995 8.48996
156 2 6.25937 13.987 7.64283
157 2 7.40844 5.01418 7.37366
158 2 6.48554 6.32958 7.38965
159 2 1.95513 1.30787 6.81935
160 2 0.583695 1.26183 7.66646
161 2 8.841 2.71572 3.42017
162 2 7.82052 1.72605 3.08469
163 2 12.689 3.35602 0.929139
164 2 13.0939 4.73715 17.6803
165 2 13.6691 4.81635 2.3252
166 2 14.9227 4.94914 3.33397
167 2 13.198 4.84665 4.51421
168 2 11.7411 4.85094 5.32596
169 2 11.0677 1.16794 5.4044
170 2 9.57618 1.14435 4.60629
171 2 9.96051 6.25462 5.41245
172 2 9.62062 4.80568 4.65441
173 2 11.8347 1.59951 1.08946
174 2 13.3523 1.41421 1.60271
175 2 12.7859 2.78017 5.35988
176 2 13.1926 1.55875 6.01209
177 2 9.3963 4.50614 6.73017
178 2 8.7807 3.25522 7.49375
179 2 8.09319 4.84733 3.305
180 2 9.36957 4.76989 2.22602
181 2 9.49165 5.00455 17.7251
182 2 11.2071 4.91033 0.89462
183 2 9.56824 1.36836 0.351881
184 2 9.58213 1.36157 1.74018
185 2 13.4885 1.14869 3.92726
186 2 14.0548 14.0869 3.31208
187 2 13.6008 1.26015 8.4304
188 2 13.9922 13.8897 7.7703
189 2 13.3467 4.8907 6.72755
190 2 14.9718 4.99319 7.53579
191 2 7.78862 1.28047 7.32143
192 2 9.4342 1.21829 6.77623
193 2 1.82191 8.42377 3.93657
194 2 1.40567 9.89057 3.0297
195 2 4.18121 11.7614 1.1358
196 2 5.22565 10.5192 0.985099
197 2 7.1564 11.9713 3.24516
198 2 5.88234 12.1949 2.36782
199 2 5.71955 11.8161 4.66292
200 2 5.42905 11.7532 6.18152
201 2 2.00875 8.28861 6.0657
202 2 3.66081 8.51073 5.51997
203 2 2.64052 13.2794 5.2192
204 2 3.41561 12.0465 5.21132
205 2 4.18856 8.39872 1.15992
206 2 5.56717 8.34688 0.535166
207 2 5.15727 9.80866 5.42525
208 2 5.47714 8.55352 4.47666
209 2 1.82977 11.8242 6.62257
210 2 1.25506 10.7061 7.38579
211 2 0.334602 11.8478 3.1439
212 2 1.66802 11.7548 3.92917
213 2 1.96066 12.1158 1.79768
214 2 2.64793 13.3791 0.895341
215 2 2.07942 8.06937 1.85231
216 2 1.96432 8.36025 0.374605
217 2 7.16971 8.5399 3.16758
218 2 5.95335 8.28071 2.49184
219 2 5.85084 8.26993 6.76126
220 2 7.25735 8.35686 7.44814
221 2 5.91425 12.0724 8.47342
222 2 7.17219 11.9424 7.49559
223 2 0.407432 8.4249 7.55694
224 2 1.85345 8.46687 8.35962
225 2 9.42966 8.34646 4.09842
226 2 9.18728 8.45981 2.32177
227 2 11.7427 11.9642 1.09408
228 2 12.4205 10.4939 1.06861
229 2 13.2428 11.8589 2.43578
230 2 13.4656 12.0689 4.08729
231 2 13.3302 12.1024 6.05138
232 2 11.6097 11.9856 5.54866
233 2 11.1231 8.27035 5.45079
234 2 9.55814 8.34004 6.27771
235 2 10.1679 13.4686 5.37313
236 2 9.59364 12.0061 4.65294
237 2 13.2207 8.70415 2.02645
238 2 13.1057 8.68704 17.5562
239 2 13.0419 8.66221 4.52646
240 2 12.4945 9.69772 5.38894
241 2 9.3473 11.8668 8.07613
242 2 9.04363 11.8118 6.64259
243 2 9.04627 10.4834 3.24239
244 2 9.29782 11.5326 2.34954
245 2 9.93703 13.3126 1.15613
246 2 9.74361 12.2012 17.6089
247 2 11.018 8.44353 1.15264
248 2 10.3101 7.06972 1.09058
249 2 14.8428 8.26166 3.30856
250 2 14.0806 6.8655 3.12266
251 2 13.5785 6.98887 7.39326
252 2 13.387 8.4189 6.55335
253 2 15.0582 12.2305 7.54992
254 2 13.5204 12.0966 8.53116
255 2 8.94975 9.71042 7.52086
256 2 9.31462 8.45245 8.392
257 2 1.90281 1.32632 11.2715
258 2 0.507791 1.28386 11.937
259 2 5.75125 4.70307 10.6026
260 2 5.42419 4.99196 8.97474
261 2 6.22878 6.28334 11.9598
262 2 6.00044 4.75016 12.67
263 2 4.17994 4.7113 14.0115
264 2 4.88237 3.3256 13.9668
265 2 1.77098 1.26852 13.7796
266 2 2.26258 1.01126 15.2301
267 2 2.49057 4.85155 15.1077
268 2 2.61136 6.15666 14.1933
269 2 4.15627 1.45406 9.89406
270 2 5.20502 2.70066 9.72795
271 2 4.28541 1.31028 14.1456
272 2 5.6667 1.41353 14.838
273 2 1.58605 4.69133 17.3117
274 2 1.30825 3.49716 16.2966
275 2 1.94327 4.75318 12.8792
276 2 1.51159 3.36183 12.0718
277 2 2.31695 4.91635 10.5351
278 2 3.61506 4.97256 9.82509
279 2 2.13499 1.20406 8.97445
280 2 2.62286 14.1749 9.76836
281 2 5.57835 1.14547 11.2161
282 2 6.06453 0.96935 12.9091
283 2 6.48362 14.0431 16.5498
284 2 5.9654 1.21356 17.1982
285 2 7.40965 5.02162 16.2623
286 2 5.95604 4.90759 15.6209
287 2 0.309679 1.4395 16.547
288 2 1.85196 1.64498 17.1828
289 2 7.83176 1.2152 11.9494
290 2 8.62521 2.64187 11.7729
291 2 13.3319 4.80964 8.96776
292 2 13.318 4.7938 10.466
293 2 14.9107 5.24137 12.091
294 2 13.6723 4.89945 12.9254
295 2 12.9478 4.80118 14.8746
296 2 12.7688 3.41633 14.1394
297 2 10.4091 14.2591 14.1106
298 2 9.66466 0.970001 13.2632
299 2 10.9565 4.83929 14.0577
300 2 9.61717 5.0156 13.1466
301 2 12.7439 2.81723 9.91357
302 2 11.8905 1.28192 10.0186
303 2 13.3014 1.51253 15.0251
304 2 11.6481 1.4645 13.9861
305 2 8.85479 3.39301 16.5319
306 2 9.24982 4.51462 15.4978
307 2 9.16506 4.7032 10.8267
308 2 7.91405 4.6441 11.9318
309 2 9.69413 4.9265 8.83442
310 2 11.1384 4.89244 9.82712
311 2 9.69603 1.20163 10.6796
312 2 9.70879 1.19487 8.9396
313 2 13.4267 1.28597 11.1782
314 2 13.2716 1.1488 12.5489
315 2 13.5873 1.01771 17.1946
316 2 14.0714 14.0366 16.3649
317 2 13.7614 6.34226 16.2181
318 2 14.8218 4.977 16.1635
319 2 7.90083 1.42517 16.3494
320 2 9.45478 1.33379 15.6929
321 2 1.52911 8.72171 11.156
322 2 1.17335 9.90586 11.9147
323 2 5.55005 11.9511 10.4839
324 2 4.02314 11.9494 9.86896
325 2 5.81388 12.0959 12.7618
326 2 6.40779 13.4307 12.0482
327 2 4.20411 11.8292 14.1043
328 2 4.81381 10.5556 13.8132
329 2 3.49852 8.39949 14.1783
330 2 2.04206 8.34766 13.4371
331 2 2.73988 13.3836 14.0803
332 2 1.91714 11.916 14.7554
333 2 4.94647 9.77605 9.72634
334 2 5.72455 8.5562 9.05371
335 2 5.54221 8.55413 13.4528
336 2 5.83241 8.6427 15.1095
337 2 0.539204 11.6399 16.2984
338 2 1.80477 11.9288 17.0984
339 2 0.314629 11.8504 12.0954
340 2 1.90984 11.6691 12.6474
341 2 2.08407 12.0493 9.1023
342 2 2.09165 12.0046 10.6861
343 2 2.3444 6.86804 9.93609
344 2 3.39866 8.23883 9.56724
345 2 7.02326 8.4381 11.6615
346 2 5.67086 8.60256 11.1419
347 2 6.21674 6.88931 16.2651
348 2 7.38016 8.44211 16.3949
349 2 6.13059 11.8611 17.131
350 2 5.79064 11.874 15.5302
351 2 1.95155 8.59043 15.5177
352 2 1.36141 9.76903 16.3341
353 2 9.34565 8.49218 12.7633
354 2 9.23216 8.24537 11.1187
355 2 12.5755 10.6904 9.90452
356 2 11.6719 11.9232 9.68889
357 2 13.7197 13.5597 11.9992
358 2 13.603 12.1558 11.0095
359 2 11.9857 11.9533 14.1798
360 2 13.2792 11.7677 13.2667
361 2 10.8954 8.19321 14.3216
362 2 10.0815 6.7974 14.2487
363 2 9.67667 11.8658 14.9547
364 2 9.82183 12.022 13.4301
365 2 13.0588 8.51314 8.909
366 2 13.0821 8.33032 10.4447
367 2 13.0937 8.54555 13.3005
368 2 12.5894 9.86622 14.3065
369 2 8.95403 10.4036 16.2815
370 2 7.92255 11.7918 16.2756
371 2 8.10888 11.786 11.9106
372 2 8.80603 10.4759 11.9965
373 2 9.91707 13.4579 9.86326
374 2 9.547 12.1169 10.5203
375 2 10.2693 6.95221 9.61126
376 2 10.9987 8.33455 9.59774
377 2 14.6875 8.20985 11.9533
378 2 13.9455 6.94274 12.1511
379 2 14.6775 8.43459 16.1082
380 2 13.2776 8.31413 15.5968
381 2 13.4741 12.0399 17.2656
382 2 13.511 12.1158 15.6066
383 2 9.13404 8.57291 15.4384
384 2 9.19308 8.52831 17.1593
ITEM: TIMESTEP
400
ITEM: NUMBER OF ATOMS
384
ITEM: BOX BOUNDS pp pp pp
4.6654049692420863e-01 1.5179137033075790e+01
4.3348055518130035e-01 1.4273664734818711e+01
6.2313843955395143e-01 1.7449898590446061e+01
ITEM: ATOMS id type x y z
1 1 1.40437 1.63037 3.29248
2 1 4.99338 4.44217 1.09771
3 1 6.27195 5.12571 3.25254
4 1 4.84811 4.18842 5.15511
5 1 2.52203 0.536298 5.32026
6 1 2.49937 5.14479 5.31024
7 1 4.90452 1.72746 1.21734
8 1 4.95818 1.59391 5.21906
9 1 1.20741 4.35002 7.38917
10 1 1.25462 4.29454 3.1617
11 1 2.4853 5.05753 0.985221
12 1 2.48092 0.969875 1.11025
13 1 6.20547 0.818157 3.21267
14 1 6.25494 0.795781 7.3476
15 1 6.13207 5.09899 7.10942
16 1 1.42622 1.67925 7.32127
17 1 8.5697 1.79178 3.12694
18 1 12.2177 4.146 0.794067
19 1 13.3804 5.00255 2.98436
20 1 12.2788 4.15223 5.07367
21 1 9.86829 0.670365 5.09561
22 1 9.86003 5.12289 5.24157
23 1 12.2489 1.55732 1.00511
24 1 12.4268 1.56322 5.29796
25 1 8.62819 4.11735 7.29883
26 1 8.68952 4.4339 3.03576
27 1 9.86779 5.17645 0.864905
28 1 9.76639 0.877208 1.08861
29 1 13.6401 0.904427 3.16687
30 1 13.6567 0.801985 7.50865
31 1 13.5118 5.21877 7.12036
32 1 8.74644 1.5034 7.29449
33 1 1.31261 8.47079 3.10674
34 1 5.00189 11.1289 1.02722
35 1 6.27161 12.0361 3.02682
36 1 4.9209 11.2555 5.13797
37 1 2.44888 7.73733 5.32152
38 1 2.36172 11.8487 5.22009
39 1 4.80409 8.52541 1.07177
40 1 4.94918 8.60626 5.16322
41 1 1.24976 11.0594 7.35259
42 1 1.22828 11.1399 3.04978
43 1 2.56669 12.1999 1.05299
44 1 2.37173 7.67012 0.949275
45 1 6.18737 7.72641 3.04835
46 1 6.05799 7.79776 7.29355
47 1 6.02578 12.0578 7.32238
48 1 1.12137 8.49653 7.35426
49 1 8.70878 8.50393 3.09707
50 1 12.2756 11.147 1.14901
51 1 13.4759 12.1626 3.08448
52 1 12.3332 11.3934 5.21201
53 1 9.89928 7.64006 5.28482
54 1 9.80477 11.9591 5.27586
55 1 12.3996 8.55755 1.09309
56 1 12.253 8.73538 5.13218
57 1 8.42704 11.1661 7.28584
58 1 8.70556 11.1575 3.08987
59 1 9.96078 12.1256 1.02033
60 1 9.85701 7.70557 1.07019
61 1 13.5412 7.65979 3.13577
62 1 13.3536 7.82789 7.20494
63 1 13.5114 12.1313 7.50134
64 1 8.46008 8.62519 7.28543
65 1 1.38775 1.62058 11.5999
66 1 5.01111 4.31156 9.36487
67 1 6.19269 5.26998 11.5849
68 1 4.9774 4.51766 13.5715
69 1 2.59104 0.768899 13.6805
70 1 2.41834 5.24649 13.694
71 1 5.05097 1.6852 9.63261
72 1 4.8938 1.85529 13.7967
73 1 1.15379 4.30888 15.6939
74 1 1.33924 4.18175 11.7144
75 1 2.49238 5.14164 9.56615
76 1 2.56422 0.787344 9.50427
77 1 6.22349 0.729473 11.7602
78 1 6.04614 0.810457 15.8615
79 1 6.33597 5.16827 15.7512
80 1 1.22161 1.62663 15.758
81 1 8.45909 1.67568 11.5802
82 1 12.3388 4.31956 9.43385
83 1 13.5737 5.09672 11.5994
84 1 12.2354 4.16284 13.5463
85 1 9.79032 0.790325 13.5768
86 1 9.72816 4.94576 13.4992
87 1 12.2308 1.75512 9.58628
88 1 12.2709 1.50644 13.7077
89 1 8.71952 4.09814 15.5991
90 1 8.5316 4.29076 11.2606
91 1 9.86593 5.18985 9.3239
92 1 9.94224 0.662537 9.49085
93 1 13.6352 0.926833 11.5129
94 1 13.6168 0.585643 15.8576
95 1 13.4663 5.19282 15.527
96 1 8.62601 1.50446 15.7567
97 1 1.20313 8.72808 11.5831
98 1 4.86996 11.2418 9.54894
99 1 6.16761 11.9571 11.6772
100 1 4.88224 11.2326 13.7671
101 1 2.40554 7.75784 13.5394
102 1 2.41562 12.0297 13.5797
103 1 4.76308 8.64195 9.43954
104 1 4.75238 8.6834 13.687
105 1 1.37082 11.0533 15.8108
106 1 1.2732 11.3543 11.482
107 1 2.40658 12.1148 9.37205
108 1 2.31788 7.66711 9.47969
109 1 6.08624 7.85591 11.5063
110 1 6.14217 7.71889 15.751
111 1 6.17643 12.0794 15.7483
112 1 1.2733 8.56274 15.7719
113 1 8.66163 8.61537 11.4471
114 1 12.184 11.2305 9.45673
115 1 13.5 12.2434 11.4818
116 1 12.2142 11.2978 13.5057
117 1 9.74591 7.62539 13.698
118 1 9.73058 12.0474 13.4727
119 1 12.2292 8.64622 9.48562
120 1 12.2418 8.63134 13.5601
121 1 8.62742 11.3126 15.8128
122 1 8.54343 11.1365 11.4855
123 1 9.73429 12.0113 9.46728
124 1 9.78333 7.73167 9.39194
125 1 13.539 7.69883 11.5188
126 1 13.5109 7.74582 15.6776
127 1 13.5629 11.7605 15.7428
128 1 8.54678 8.59144 15.7793
129 2 0.481813 1.46047 3.2914
130 2 1.32864 2.71482 3.15145
131 2 5.72373 4.69096 1.83121
132 2 5.70398 4.77594 17.1456
133 2 5.54651 4.72212 4.01982
134 2 6.3111 6.20427 3.24268
135 2 3.75419 4.65873 5.13216
136 2 5.58263 4.68871 5.99603
137 2 1.90231 0.99904 4.42828
138 2 3.41039 0.923281 5.19279
139 2 2.12441 4.97308 6.21079
140 2 2.30814 6.17965 5.24694
141 2 5.37319 1.42732 2.0471
142 2 4.93618 2.79646 1.1354
143 2 4.62463 2.57364 5.13493
144 2 5.30656 1.39686 6.24838
145 2 1.58048 4.66849 8.22876
146 2 1.12031 3.42496 7.45339
147 2 1.70118 4.73881 4.00554
148 2 1.73839 4.74534 2.54761
149 2 3.50957 4.78324 0.905691
150 2 2.60161 6.04833 1.2998
151 2 3.38054 1.57299 1.21141
152 2 1.98707 1.28323 1.87425
153 2 5.84636 1.05312 4.15707
154 2 6.32797 13.6797 3.27828
155 2 5.89265 1.11911 8.1485
156 2 6.33818 13.7082 7.46683
157 2 7.13839 4.73807 7.10723
158 2 6.04513 6.09941 7.3081
159 2 1.70928 1.14549 6.38701
160 2 15.1787 1.30895 7.42257
161 2 8.60478 2.88373 3.29551
162 2 7.53841 1.38357 3.23126
163 2 11.8576 3.31419 0.850604
164 2 12.4981 4.43524 16.7783
165 2 12.9474 4.61003 1.9164
166 2 14.2122 4.50718 2.71276
167 2 12.6375 4.49965 4.07454
168 2 11.4964 4.61828 5.00722
169 2 10.746 1.12305 5.33721
170 2 9.54618 1.09186 4.2478
171 2 9.73518 6.12625 5.33567
172 2 9.33858 5.02995 4.28503
173 2 11.3257 1.19018 1.20512
174 2 12.6062 1.34205 1.78183
175 2 12.2878 2.56351 5.36556
176 2 12.8223 1.28702 6.02262
177 2 8.93882 4.47793 6.35811
178 2 8.59874 3.10031 7.32938
179 2 7.63933 4.60513 3.10076
180 2 8.99552 4.62551 2.08007
181 2 9.22251 4.71416 17.0187
182 2 10.8551 4.7744 0.888443
183 2 9.00986 1.25634 17.075
184 2 9.20913 1.22884 1.87653
185 2 13.1277 1.29197 3.83991
186 2 13.4993 13.7898 3.02821
187 2 13.1564 1.29188 8.22056
188 2 13.6664 13.6275 7.76696
189 2 13.263 4.55515 6.38403
190 2 14.3509 4.98813 7.43147
191 2 7.737 1.24398 7.19108
192 2 9.1745 1.06251 6.53422
193 2 1.85128 8.08024 3.91468
194 2 1.12442 9.40168 3.32397
195 2 4.13614 11.5756 1.12916
196 2 4.83392 10.265 1.15232
197 2 7.20884 11.875 3.17946
198 2 5.59265 11.7162 2.18156
199 2 5.52574 11.5144 4.30254
200 2 5.2284 11.6937 6.0511
201 2 1.86694 7.91481 6.21601
202 2 3.42317 8.14034 5.33589
203 2 2.22193 12.8592 5.03824
204 2 3.4177 11.7768 5.14938
205 2 3.80888 8.2345 1.03703
206 2 5.15672 8.53169 17.0504
207 2 4.9903 9.58304 5.00922
208 2 5.43378 8.16072 4.33579
209 2 1.87024 11.1641 6.5866
210 2 0.957948 10.2507 7.55942
211 2 15.0765 11.6011 3.05977
212 2 1.55169 11.4044 3.93509
213 2 1.90349 11.9175 1.84445
214 2 2.77344 13.1666 1.20412
215 2 1.91892 8.0713 1.5741
216 2 1.97462 7.95583 16.8766
217 2 7.26502 7.82367 2.9341
218 2 5.72915 8.05418 2.30089
219 2 5.63586 7.93148 6.38488
220 2 6.9959 8.34315 7.30128
221 2 5.56507 11.6152 8.16703
222 2 6.91239 11.7152 7.42713
223 2 14.819 8.22495 7.20652
224 2 1.31219 8.2904 8.39204
225 2 9.0464 8.26562 3.98308
226 2 9.1078 8.09155 2.29841
227 2 11.2978 11.591 0.850492
228 2 12.281 10.2144 0.907066
229 2 13.0592 11.8164 2.06216
230 2 13.0919 11.969 3.9192
231 2 12.7343 11.9308 5.98472
232 2 11.2994 11.6317 5.30675
233 2 10.7996 8.08373 5.106
234 2 9.38242 8.16186 5.91035
235 2 9.83073 12.9643 5.19261
236 2 9.54038 11.6881 4.39473
237 2 12.8518 8.13139 1.86978
238 2 12.7324 8.34951 17.0856
239 2 12.693 8.39791 4.41333
240 2 12.2387 9.84947 5.08377
241 2 8.97472 11.478 8.06774
242 2 9.09985 11.5186 6.61741
243 2 8.60738 10.1289 2.96973
244 2 9.3082 11.3737 2.33062
245 2 9.80537 13.1153 0.966599
246 2 9.44246 11.8705 16.9181
247 2 10.7966 7.99604 0.854169
248 2 9.97855 6.71656 0.896
249 2 14.4457 7.98162 3.2689
250 2 13.6218 6.74293 3.17577
251 2 13.3557 6.68178 7.07983
252 2 12.8562 8.2681 6.52358
253 2 14.4119 11.7048 7.31863
254 2 13.1174 11.5583 8.37944
255 2 8.57626 9.53762 7.36888
256 2 8.94794 8.3191 8.0852
257 2 1.81209 1.3997 10.794
258 2 0.497595 1.42582 11.7797
259 2 5.2333 4.64621 10.2189
260 2 5.32344 4.79946 8.58785
261 2 6.09283 6.38274 11.3983
262 2 5.69865 5.06171 12.4007
263 2 3.83237 4.64254 13.6121
264 2 5.09247 3.4403 13.5821
265 2 2.27879 1.08215 12.8124
266 2 1.88298 1.19986 14.3514
267 2 2.12718 4.88319 14.5558
268 2 2.36681 6.29859 13.643
269 2 4.11272 1.41107 9.34315
270 2 4.81998 2.58186 9.3905
271 2 3.84837 1.57978 13.7513
272 2 5.45463 1.42776 14.5975
273 2 1.49929 4.42701 16.5537
274 2 1.34209 3.35988 15.6553
275 2 1.85091 4.43614 12.423
276 2 1.40001 3.18213 11.6805
277 2 1.96958 4.76262 10.4409
278 2 3.50928 4.71294 9.71251
279 2 2.23383 1.24733 8.64266
280 2 2.622 13.6606 9.33836
281 2 5.8729 1.17045 11.0389
282 2 5.84918 1.09879 12.5744
283 2 6.00954 13.4587 15.7174
284 2 5.38657 1.06762 16.6354
285 2 7.36892 4.62799 15.7243
286 2 5.87631 4.88932 14.7904
287 2 14.988 1.05314 15.6648
288 2 1.6855 1.17817 16.6957
289 2 7.55647 1.36102 11.7181
290 2 8.53668 2.65044 11.4042
291 2 12.7632 4.71141 8.5938
292 2 12.938 4.58312 10.2022
293 2 14.4933 4.67256 11.4605
294 2 13.0054 4.62636 12.364
295 2 12.7683 4.61324 14.344
296 2 12.2915 3.28209 13.7354
297 2 9.62943 13.7011 13.3984
298 2 9.31554 1.21179 12.9434
299 2 10.6171 4.56117 13.3745
300 2 9.34075 4.87177 12.5421
301 2 11.9947 2.55956 9.48741
302 2 11.4614 1.15963 9.88742
303 2 12.8345 1.0579 14.4708
304 2 11.4109 1.26064 13.7758
305 2 8.49013 3.16484 15.6336
306 2 9.09627 4.5246 14.716
307 2 8.95 4.78938 10.5715
308 2 7.6167 4.7932 11.4135
309 2 9.5315 4.89946 8.65236
310 2 10.8969 4.84243 9.22392
311 2 9.54423 1.1859 10.2547
312 2 9.55329 0.937097 8.79212
313 2 13.1419 1.32408 10.7569
314 2 13.2268 1.13499 12.3527
315 2 13.3115 1.16124 16.6694
316 2 13.3468 13.4248 15.9725
317 2 13.224 6.22094 15.4409
318 2 14.4038 4.99775 15.752
319 2 7.58877 1.04297 15.7786
320 2 9.19479 0.963381 15.0297
321 2 1.63316 8.42495 10.7681
322 2 1.24365 9.69209 11.6647
323 2 5.45718 11.4349 10.2742
324 2 3.86082 11.2834 9.74457
325 2 5.56681 11.5977 12.4183
326 2 6.05767 13.074 11.8603
327 2 3.87585 11.4083 13.4371
328 2 4.81514 10.2091 13.8427