LAMMPS data file via Yifan's python script

384 atoms
2 atom types

0.00000000 15.64567753 xlo xhi
0.00000000 14.70714529 ylo yhi
0.00000000 18.07303703 zlo zhi

Masses

1 15.9994
2 1.00794

Atoms # atomic

1 1 1.38000000 1.76000000 3.37000000 0 0 0
2 1 5.20000000 4.47000000 1.11000000 0 0 0
3 1 6.59000000 5.39000000 3.31000000 0 0 0
4 1 5.28000000 4.49000000 5.56000000 0 0 0
5 1 2.59000000 0.84000000 5.67000000 0 0 0
6 1 2.69000000 5.43000000 5.56000000 0 0 0
7 1 5.20000000 1.71000000 1.07000000 0 0 0
8 1 5.20000000 1.73000000 5.58000000 0 0 0
9 1 1.32000000 4.61000000 7.82000000 0 0 0
10 1 1.30000000 4.52000000 3.36000000 0 0 0
11 1 2.61000000 5.41000000 1.10000000 0 0 0
12 1 2.59000000 0.82000000 1.07000000 0 0 0
13 1 6.54000000 0.87000000 3.33000000 0 0 0
14 1 6.54000000 0.88000000 7.83000000 0 0 0
15 1 6.51000000 5.40000000 7.86000000 0 0 0
16 1 1.35000000 1.85000000 7.92000000 0 0 0
17 1 9.20000000 1.76000000 3.37000000 0 0 0
18 1 13.05000000 4.55000000 1.15000000 0 0 0
19 1 14.35000000 5.46000000 3.40000000 0 0 0
20 1 13.10000000 4.49000000 5.66000000 0 0 0
21 1 10.41000000 0.84000000 5.67000000 0 0 0
22 1 10.51000000 5.43000000 5.65000000 0 0 0
23 1 13.07000000 1.79000000 1.07000000 0 0 0
24 1 13.02000000 1.73000000 5.58000000 0 0 0
25 1 9.15000000 4.61000000 7.91000000 0 0 0
26 1 9.20000000 4.52000000 3.40000000 0 0 0
27 1 10.45000000 5.49000000 1.15000000 0 0 0
28 1 10.49000000 0.82000000 1.12000000 0 0 0
29 1 14.36000000 0.87000000 3.33000000 0 0 0
30 1 14.36000000 0.88000000 7.83000000 0 0 0
31 1 14.36000000 5.48000000 7.90000000 0 0 0
32 1 9.17000000 1.85000000 7.92000000 0 0 0
33 1 1.30000000 9.11000000 3.32000000 0 0 0
34 1 5.30000000 11.90000000 1.11000000 0 0 0
35 1 6.53000000 12.81000000 3.40000000 0 0 0
36 1 5.20000000 11.84000000 5.61000000 0 0 0
37 1 2.59000000 8.19000000 5.58000000 0 0 0
38 1 2.61000000 12.79000000 5.61000000 0 0 0
39 1 5.25000000 9.14000000 1.16000000 0 0 0
40 1 5.20000000 9.08000000 5.67000000 0 0 0
41 1 1.32000000 11.96000000 7.91000000 0 0 0
42 1 1.38000000 11.87000000 3.31000000 0 0 0
43 1 2.69000000 12.77000000 1.06000000 0 0 0
44 1 2.67000000 8.17000000 1.12000000 0 0 0
45 1 6.49000000 8.14000000 3.42000000 0 0 0
46 1 6.49000000 8.16000000 7.92000000 0 0 0
47 1 6.53000000 12.83000000 7.81000000 0 0 0
48 1 1.35000000 9.21000000 7.83000000 0 0 0
49 1 9.09000000 9.19000000 3.37000000 0 0 0
50 1 13.13000000 11.90000000 1.11000000 0 0 0
51 1 14.44000000 12.82000000 3.35000000 0 0 0
52 1 13.10000000 11.84000000 5.56000000 0 0 0
53 1 10.41000000 8.19000000 5.58000000 0 0 0
54 1 10.51000000 12.79000000 5.65000000 0 0 0
55 1 12.99000000 9.14000000 1.12000000 0 0 0
56 1 13.02000000 9.08000000 5.67000000 0 0 0
57 1 9.12000000 11.89000000 7.86000000 0 0 0
58 1 9.15000000 11.95000000 3.40000000 0 0 0
59 1 10.51000000 12.77000000 1.15000000 0 0 0
60 1 10.38000000 8.25000000 1.12000000 0 0 0
61 1 14.29000000 8.22000000 3.37000000 0 0 0
62 1 14.36000000 8.24000000 7.92000000 0 0 0
63 1 14.36000000 12.83000000 7.81000000 0 0 0
64 1 9.12000000 9.13000000 7.83000000 0 0 0
65 1 1.35000000 1.83000000 12.45000000 0 0 0
66 1 5.20000000 4.47000000 10.14000000 0 0 0
67 1 6.59000000 5.39000000 12.34000000 0 0 0
68 1 5.30000000 4.56000000 14.65000000 0 0 0
69 1 2.67000000 0.84000000 14.66000000 0 0 0
70 1 2.69000000 5.43000000 14.60000000 0 0 0
71 1 5.28000000 1.71000000 10.15000000 0 0 0
72 1 5.25000000 1.81000000 14.61000000 0 0 0
73 1 1.32000000 4.61000000 16.85000000 0 0 0
74 1 1.32000000 4.59000000 12.35000000 0 0 0
75 1 2.63000000 5.49000000 10.09000000 0 0 0
76 1 2.64000000 0.89000000 10.20000000 0 0 0
77 1 6.57000000 0.79000000 12.41000000 0 0 0
78 1 6.54000000 0.88000000 16.87000000 0 0 0
79 1 6.53000000 5.48000000 16.94000000 0 0 0
80 1 1.35000000 1.85000000 16.86000000 0 0 0
81 1 9.20000000 1.76000000 12.41000000 0 0 0
82 1 13.02000000 4.47000000 10.14000000 0 0 0
83 1 14.35000000 5.46000000 12.34000000 0 0 0
84 1 13.05000000 4.57000000 14.60000000 0 0 0
85 1 10.46000000 0.91000000 14.71000000 0 0 0
86 1 10.46000000 5.51000000 14.69000000 0 0 0
87 1 13.10000000 1.71000000 10.15000000 0 0 0
88 1 13.07000000 1.81000000 14.61000000 0 0 0
89 1 9.15000000 4.61000000 16.94000000 0 0 0
90 1 9.20000000 4.52000000 12.44000000 0 0 0
91 1 10.45000000 5.49000000 10.18000000 0 0 0
92 1 10.49000000 0.82000000 10.16000000 0 0 0
93 1 14.39000000 0.79000000 12.41000000 0 0 0
94 1 14.36000000 0.88000000 16.87000000 0 0 0
95 1 14.33000000 5.40000000 16.89000000 0 0 0
96 1 9.17000000 1.85000000 16.96000000 0 0 0
97 1 1.30000000 9.11000000 12.45000000 0 0 0
98 1 5.28000000 11.83000000 10.10000000 0 0 0
99 1 6.59000000 12.74000000 12.34000000 0 0 0
100 1 5.30000000 11.92000000 14.65000000 0 0 0
101 1 2.59000000 8.19000000 14.71000000 0 0 0
102 1 2.69000000 12.79000000 14.60000000 0 0 0
103 1 5.20000000 9.07000000 10.20000000 0 0 0
104 1 5.17000000 9.16000000 14.66000000 0 0 0
105 1 1.38000000 11.89000000 16.85000000 0 0 0
106 1 1.38000000 11.87000000 12.35000000 0 0 0
107 1 2.71000000 12.84000000 10.14000000 0 0 0
108 1 2.56000000 8.25000000 10.16000000 0 0 0
109 1 6.49000000 8.14000000 12.46000000 0 0 0
110 1 6.46000000 8.24000000 16.91000000 0 0 0
111 1 6.61000000 12.83000000 16.89000000 0 0 0
112 1 1.30000000 9.13000000 16.96000000 0 0 0
113 1 9.09000000 9.19000000 12.41000000 0 0 0
114 1 13.13000000 11.90000000 10.14000000 0 0 0
115 1 14.41000000 12.74000000 12.44000000 0 0 0
116 1 13.10000000 11.84000000 14.69000000 0 0 0
117 1 10.38000000 8.27000000 14.66000000 0 0 0
118 1 10.53000000 12.86000000 14.64000000 0 0 0
119 1 12.99000000 9.14000000 10.15000000 0 0 0
120 1 13.02000000 9.08000000 14.70000000 0 0 0
121 1 9.23000000 11.96000000 16.90000000 0 0 0
122 1 9.23000000 11.95000000 12.39000000 0 0 0
123 1 10.51000000 12.77000000 10.09000000 0 0 0
124 1 10.38000000 8.25000000 10.16000000 0 0 0
125 1 14.29000000 8.22000000 12.41000000 0 0 0
126 1 14.31000000 8.16000000 16.96000000 0 0 0
127 1 14.44000000 12.83000000 16.89000000 0 0 0
128 1 9.09000000 9.21000000 16.91000000 0 0 0
129 2 0.46000000 1.48000000 3.37000000 0 0 0
130 2 1.33000000 2.71000000 3.37000000 0 0 0
131 2 5.68000000 4.81000000 1.86000000 0 0 0
132 2 5.67000000 4.81000000 0.35000000 0 0 0
133 2 6.13000000 5.10000000 4.10000000 0 0 0
134 2 6.56000000 6.34000000 3.34000000 0 0 0
135 2 4.38000000 4.84000000 5.60000000 0 0 0
136 2 5.70000000 4.83000000 6.36000000 0 0 0
137 2 2.17000000 1.18000000 4.88000000 0 0 0
138 2 3.49000000 1.17000000 5.63000000 0 0 0
139 2 2.23000000 5.15000000 6.35000000 0 0 0
140 2 2.65000000 6.39000000 5.59000000 0 0 0
141 2 5.65000000 1.43000000 1.86000000 0 0 0
142 2 5.23000000 2.67000000 1.10000000 0 0 0
143 2 5.23000000 2.69000000 5.61000000 0 0 0
144 2 5.65000000 1.45000000 6.37000000 0 0 0
145 2 1.78000000 4.88000000 8.61000000 0 0 0
146 2 1.33000000 3.65000000 7.85000000 0 0 0
147 2 1.78000000 4.85000000 4.11000000 0 0 0
148 2 1.78000000 4.85000000 2.60000000 0 0 0
149 2 3.52000000 5.14000000 1.10000000 0 0 0
150 2 2.64000000 6.37000000 1.11000000 0 0 0
151 2 3.49000000 1.15000000 1.11000000 0 0 0
152 2 2.17000000 1.16000000 1.87000000 0 0 0
153 2 6.09000000 1.14000000 4.12000000 0 0 0
154 2 6.53000000 -0.09000000 3.37000000 0 0 0
155 2 6.09000000 1.15000000 8.63000000 0 0 0
156 2 6.53000000 -0.07000000 7.86000000 0 0 0
157 2 7.43000000 5.14000000 7.86000000 0 0 0
158 2 6.53000000 6.36000000 7.86000000 0 0 0
159 2 1.77000000 1.51000000 7.13000000 0 0 0
160 2 0.46000000 1.51000000 7.89000000 0 0 0
161 2 9.16000000 2.71000000 3.37000000 0 0 0
162 2 8.28000000 1.48000000 3.37000000 0 0 0
163 2 13.06000000 3.59000000 1.12000000 0 0 0
164 2 13.50000000 4.82000000 0.36000000 0 0 0
165 2 13.94000000 5.12000000 2.61000000 0 0 0
166 2 15.25000000 5.14000000 3.36000000 0 0 0
167 2 13.52000000 4.82000000 4.86000000 0 0 0
168 2 12.21000000 4.84000000 5.62000000 0 0 0
169 2 11.31000000 1.17000000 5.63000000 0 0 0
170 2 10.00000000 1.18000000 4.88000000 0 0 0
171 2 10.47000000 6.39000000 5.62000000 0 0 0
172 2 10.05000000 5.15000000 4.86000000 0 0 0
173 2 12.18000000 1.46000000 1.11000000 0 0 0
174 2 13.49000000 1.45000000 1.86000000 0 0 0
175 2 13.05000000 2.69000000 5.61000000 0 0 0
176 2 13.48000000 1.45000000 6.37000000 0 0 0
177 2 9.61000000 4.88000000 7.11000000 0 0 0
178 2 9.16000000 3.65000000 7.88000000 0 0 0
179 2 8.30000000 4.84000000 3.36000000 0 0 0
180 2 9.61000000 4.85000000 2.61000000 0 0 0
181 2 10.04000000 5.17000000 0.35000000 0 0 0
182 2 11.35000000 5.14000000 1.11000000 0 0 0
183 2 10.02000000 1.16000000 0.36000000 0 0 0
184 2 10.02000000 1.16000000 1.88000000 0 0 0
185 2 13.91000000 1.14000000 4.12000000 0 0 0
186 2 14.35000000 -0.09000000 3.37000000 0 0 0
187 2 13.91000000 1.15000000 8.63000000 0 0 0
188 2 14.36000000 -0.07000000 7.86000000 0 0 0
189 2 13.94000000 5.14000000 7.11000000 0 0 0
190 2 15.26000000 5.16000000 7.86000000 0 0 0
191 2 8.28000000 1.51000000 7.89000000 0 0 0
192 2 9.59000000 1.51000000 7.13000000 0 0 0
193 2 1.75000000 8.83000000 4.12000000 0 0 0
194 2 1.33000000 10.07000000 3.36000000 0 0 0
195 2 4.39000000 12.19000000 1.10000000 0 0 0
196 2 5.25000000 10.94000000 1.11000000 0 0 0
197 2 7.43000000 12.49000000 3.36000000 0 0 0
198 2 6.12000000 12.48000000 2.61000000 0 0 0
199 2 5.68000000 12.17000000 4.85000000 0 0 0
200 2 5.68000000 12.18000000 6.37000000 0 0 0
201 2 2.17000000 8.54000000 6.37000000 0 0 0
202 2 3.49000000 8.52000000 5.61000000 0 0 0
203 2 2.64000000 13.74000000 5.61000000 0 0 0
204 2 3.52000000 12.51000000 5.61000000 0 0 0
205 2 4.35000000 8.81000000 1.13000000 0 0 0
206 2 5.66000000 8.81000000 0.36000000 0 0 0
207 2 5.23000000 10.04000000 5.63000000 0 0 0
208 2 5.65000000 8.80000000 4.88000000 0 0 0
209 2 1.78000000 12.24000000 7.11000000 0 0 0
210 2 1.34000000 11.01000000 7.88000000 0 0 0
211 2 0.48000000 12.20000000 3.35000000 0 0 0
212 2 1.79000000 12.21000000 4.11000000 0 0 0
213 2 2.23000000 12.49000000 1.85000000 0 0 0
214 2 2.65000000 13.72000000 1.09000000 0 0 0
215 2 2.19000000 8.52000000 1.88000000 0 0 0
216 2 2.20000000 8.52000000 0.36000000 0 0 0
217 2 7.38000000 8.49000000 3.39000000 0 0 0
218 2 6.07000000 8.48000000 2.63000000 0 0 0
219 2 6.07000000 8.50000000 7.13000000 0 0 0
220 2 7.38000000 8.51000000 7.89000000 0 0 0
221 2 6.12000000 12.49000000 8.61000000 0 0 0
222 2 7.43000000 12.51000000 7.85000000 0 0 0
223 2 0.46000000 8.86000000 7.86000000 0 0 0
224 2 1.77000000 8.86000000 8.62000000 0 0 0
225 2 9.57000000 8.85000000 4.13000000 0 0 0
226 2 9.57000000 8.84000000 2.61000000 0 0 0
227 2 12.21000000 12.19000000 1.10000000 0 0 0
228 2 13.08000000 10.94000000 1.11000000 0 0 0
229 2 13.95000000 12.48000000 2.60000000 0 0 0
230 2 13.95000000 12.48000000 4.11000000 0 0 0
231 2 13.52000000 12.18000000 6.36000000 0 0 0
232 2 12.21000000 12.19000000 5.60000000 0 0 0
233 2 11.31000000 8.52000000 5.61000000 0 0 0
234 2 10.00000000 8.54000000 6.37000000 0 0 0
235 2 10.47000000 13.74000000 5.62000000 0 0 0
236 2 10.05000000 12.51000000 4.86000000 0 0 0
237 2 13.47000000 8.80000000 1.87000000 0 0 0
238 2 13.47000000 8.81000000 0.36000000 0 0 0
239 2 13.48000000 8.80000000 4.88000000 0 0 0
240 2 13.05000000 10.04000000 5.63000000 0 0 0
241 2 9.60000000 12.22000000 8.62000000 0 0 0
242 2 9.60000000 12.22000000 7.11000000 0 0 0
243 2 9.16000000 10.99000000 3.37000000 0 0 0
244 2 9.61000000 12.22000000 2.61000000 0 0 0
245 2 10.48000000 13.72000000 1.13000000 0 0 0
246 2 10.05000000 12.49000000 0.35000000 0 0 0
247 2 11.30000000 8.53000000 1.12000000 0 0 0
248 2 10.43000000 7.29000000 1.11000000 0 0 0
249 2 15.20000000 8.51000000 3.37000000 0 0 0
250 2 14.34000000 7.26000000 3.37000000 0 0 0
251 2 14.36000000 7.28000000 7.88000000 0 0 0
252 2 13.91000000 8.52000000 7.13000000 0 0 0
253 2 15.26000000 12.51000000 7.85000000 0 0 0
254 2 13.94000000 12.49000000 8.61000000 0 0 0
255 2 9.15000000 10.09000000 7.86000000 0 0 0
256 2 9.57000000 8.85000000 8.62000000 0 0 0
257 2 1.77000000 1.49000000 11.66000000 0 0 0
258 2 0.46000000 1.49000000 12.42000000 0 0 0
259 2 5.68000000 4.81000000 10.90000000 0 0 0
260 2 5.67000000 4.81000000 9.38000000 0 0 0
261 2 6.56000000 6.34000000 12.38000000 0 0 0
262 2 6.13000000 5.10000000 13.14000000 0 0 0
263 2 4.39000000 4.85000000 14.65000000 0 0 0
264 2 5.25000000 3.61000000 14.65000000 0 0 0
265 2 2.19000000 1.18000000 13.90000000 0 0 0
266 2 2.19000000 1.18000000 15.42000000 0 0 0
267 2 2.23000000 5.15000000 15.39000000 0 0 0
268 2 2.65000000 6.39000000 14.63000000 0 0 0
269 2 4.36000000 1.44000000 10.15000000 0 0 0
270 2 5.24000000 2.67000000 10.15000000 0 0 0
271 2 4.35000000 1.48000000 14.65000000 0 0 0
272 2 5.66000000 1.47000000 15.41000000 0 0 0
273 2 1.78000000 4.88000000 17.65000000 0 0 0
274 2 1.33000000 3.65000000 16.89000000 0 0 0
275 2 1.78000000 4.87000000 13.14000000 0 0 0
276 2 1.34000000 3.64000000 12.39000000 0 0 0
277 2 2.21000000 5.16000000 10.89000000 0 0 0
278 2 3.52000000 5.14000000 10.13000000 0 0 0
279 2 2.19000000 1.18000000 9.41000000 0 0 0
280 2 2.63000000 -0.06000000 10.16000000 0 0 0
281 2 6.09000000 1.13000000 11.65000000 0 0 0
282 2 6.09000000 1.14000000 13.17000000 0 0 0
283 2 6.53000000 -0.07000000 16.90000000 0 0 0
284 2 6.09000000 1.15000000 17.67000000 0 0 0
285 2 7.43000000 5.16000000 16.90000000 0 0 0
286 2 6.12000000 5.14000000 16.15000000 0 0 0
287 2 0.46000000 1.51000000 16.89000000 0 0 0
288 2 1.77000000 1.51000000 17.66000000 0 0 0
289 2 8.28000000 1.48000000 12.41000000 0 0 0
290 2 9.16000000 2.71000000 12.40000000 0 0 0
291 2 13.50000000 4.81000000 9.38000000 0 0 0
292 2 13.50000000 4.81000000 10.90000000 0 0 0
293 2 15.25000000 5.14000000 12.39000000 0 0 0
294 2 13.94000000 5.13000000 13.14000000 0 0 0
295 2 13.51000000 4.84000000 15.39000000 0 0 0
296 2 13.06000000 3.61000000 14.64000000 0 0 0
297 2 10.46000000 -0.04000000 14.67000000 0 0 0
298 2 10.01000000 1.19000000 13.91000000 0 0 0
299 2 11.35000000 5.16000000 14.65000000 0 0 0
300 2 10.04000000 5.17000000 13.90000000 0 0 0
301 2 13.07000000 2.67000000 10.15000000 0 0 0
302 2 12.18000000 1.44000000 10.15000000 0 0 0
303 2 13.49000000 1.47000000 15.41000000 0 0 0
304 2 12.18000000 1.48000000 14.65000000 0 0 0
305 2 9.16000000 3.65000000 16.91000000 0 0 0
306 2 9.61000000 4.88000000 16.15000000 0 0 0
307 2 9.61000000 4.85000000 11.64000000 0 0 0
308 2 8.30000000 4.84000000 12.40000000 0 0 0
309 2 10.04000000 5.17000000 9.39000000 0 0 0
310 2 11.35000000 5.14000000 10.15000000 0 0 0
311 2 10.02000000 1.16000000 10.91000000 0 0 0
312 2 10.02000000 1.16000000 9.40000000 0 0 0
313 2 13.92000000 1.13000000 11.65000000 0 0 0
314 2 13.92000000 1.14000000 13.17000000 0 0 0
315 2 13.91000000 1.15000000 17.67000000 0 0 0
316 2 14.36000000 -0.07000000 16.90000000 0 0 0
317 2 14.36000000 6.36000000 16.90000000 0 0 0
318 2 15.25000000 5.14000000 16.90000000 0 0 0
319 2 8.28000000 1.51000000 16.93000000 0 0 0
320 2 9.59000000 1.51000000 16.17000000 0 0 0
321 2 1.75000000 8.83000000 11.66000000 0 0 0
322 2 1.33000000 10.07000000 12.41000000 0 0 0
323 2 5.70000000 12.16000000 10.89000000 0 0 0
324 2 4.38000000 12.17000000 10.13000000 0 0 0
325 2 6.13000000 12.46000000 13.14000000 0 0 0
326 2 6.56000000 13.70000000 12.38000000 0 0 0
327 2 4.39000000 12.21000000 14.65000000 0 0 0
328 2 5.25000000 10.96000000 14.65000000 0 0 0
329 2 3.49000000 8.52000000 14.67000000 0 0 0
330 2 2.17000000 8.53000000 13.91000000 0 0 0
331 2 2.65000000 13.74000000 14.63000000 0 0 0
332 2 2.23000000 12.50000000 15.39000000 0 0 0
333 2 5.22000000 10.02000000 10.17000000 0 0 0
334 2 5.65000000 8.79000000 9.40000000 0 0 0
335 2 5.65000000 8.81000000 13.90000000 0 0 0
336 2 5.65000000 8.82000000 15.42000000 0 0 0
337 2 0.48000000 12.22000000 16.89000000 0 0 0
338 2 1.79000000 12.22000000 17.65000000 0 0 0
339 2 0.48000000 12.20000000 12.39000000 0 0 0
340 2 1.79000000 12.21000000 13.14000000 0 0 0
341 2 2.23000000 12.52000000 9.38000000 0 0 0
342 2 2.23000000 12.51000000 10.89000000 0 0 0
343 2 2.61000000 7.29000000 10.15000000 0 0 0
344 2 3.48000000 8.53000000 10.16000000 0 0 0
345 2 7.38000000 8.49000000 12.42000000 0 0 0
346 2 6.07000000 8.48000000 11.66000000 0 0 0
347 2 6.52000000 7.28000000 16.91000000 0 0 0
348 2 7.37000000 8.53000000 16.91000000 0 0 0
349 2 6.14000000 12.50000000 17.65000000 0 0 0
350 2 6.13000000 12.50000000 16.14000000 0 0 0
351 2 1.75000000 8.84000000 16.16000000 0 0 0
352 2 1.33000000 10.09000000 16.92000000 0 0 0
353 2 9.57000000 8.85000000 13.16000000 0 0 0
354 2 9.57000000 8.84000000 11.65000000 0 0 0
355 2 13.08000000 10.94000000 10.15000000 0 0 0
356 2 12.21000000 12.19000000 10.14000000 0 0 0
357 2 14.37000000 13.70000000 12.41000000 0 0 0
358 2 13.95000000 12.46000000 11.65000000 0 0 0
359 2 12.21000000 12.19000000 14.66000000 0 0 0
360 2 13.52000000 12.17000000 13.90000000 0 0 0
361 2 11.30000000 8.55000000 14.66000000 0 0 0
362 2 10.43000000 7.31000000 14.66000000 0 0 0
363 2 10.05000000 12.53000000 15.40000000 0 0 0
364 2 10.05000000 12.52000000 13.89000000 0 0 0
365 2 13.47000000 8.81000000 9.39000000 0 0 0
366 2 13.47000000 8.80000000 10.91000000 0 0 0
367 2 13.48000000 8.80000000 13.91000000 0 0 0
368 2 13.05000000 10.04000000 14.67000000 0 0 0
369 2 9.19000000 11.01000000 16.90000000 0 0 0
370 2 8.31000000 12.24000000 16.90000000 0 0 0
371 2 8.31000000 12.22000000 12.39000000 0 0 0
372 2 9.19000000 10.99000000 12.40000000 0 0 0
373 2 10.48000000 13.72000000 10.13000000 0 0 0
374 2 10.05000000 12.49000000 10.88000000 0 0 0
375 2 10.43000000 7.29000000 10.15000000 0 0 0
376 2 11.30000000 8.53000000 10.16000000 0 0 0
377 2 15.20000000 8.51000000 12.41000000 0 0 0
378 2 14.34000000 7.26000000 12.40000000 0 0 0
379 2 15.20000000 8.51000000 16.93000000 0 0 0
380 2 13.89000000 8.50000000 16.17000000 0 0 0
381 2 13.96000000 12.50000000 17.65000000 0 0 0
382 2 13.95000000 12.50000000 16.14000000 0 0 0
383 2 9.57000000 8.86000000 16.15000000 0 0 0
384 2 9.56000000 8.86000000 17.67000000 0 0 0
